 TITLE = "varsolution.tec"
 VARIABLES = "x","y","z","var"
 ZONE I =           4 ,J=           4 ,K=           4 ,F=POINT
 -0.10000E+01 -0.10000E+01 -0.10000E+01  0.20023E+01
 -0.10000E+01 -0.10000E+01 -0.88944E+00  0.19681E+01
 -0.10000E+01 -0.10000E+01 -0.71056E+00  0.19226E+01
 -0.10000E+01 -0.10000E+01 -0.60000E+00  0.19056E+01
 -0.10000E+01 -0.88944E+00 -0.10000E+01  0.19681E+01
 -0.10000E+01 -0.88944E+00 -0.88944E+00  0.19378E+01
 -0.10000E+01 -0.88944E+00 -0.71056E+00  0.19056E+01
 -0.10000E+01 -0.88944E+00 -0.60000E+00  0.19000E+01
 -0.10000E+01 -0.71056E+00 -0.10000E+01  0.19226E+01
 -0.10000E+01 -0.71056E+00 -0.88944E+00  0.19056E+01
 -0.10000E+01 -0.71056E+00 -0.71056E+00  0.19026E+01
 -0.10000E+01 -0.71056E+00 -0.60000E+00  0.19159E+01
 -0.10000E+01 -0.60000E+00 -0.10000E+01  0.19056E+01
 -0.10000E+01 -0.60000E+00 -0.88944E+00  0.19000E+01
 -0.10000E+01 -0.60000E+00 -0.71056E+00  0.19159E+01
 -0.10000E+01 -0.60000E+00 -0.60000E+00  0.19394E+01
 -0.88944E+00 -0.10000E+01 -0.10000E+01  0.19681E+01
 -0.88944E+00 -0.10000E+01 -0.88944E+00  0.19378E+01
 -0.88944E+00 -0.10000E+01 -0.71056E+00  0.19056E+01
 -0.88944E+00 -0.10000E+01 -0.60000E+00  0.19000E+01
 -0.88944E+00 -0.88944E+00 -0.10000E+01  0.19378E+01
 -0.88944E+00 -0.88944E+00 -0.88944E+00  0.19148E+01
 -0.88944E+00 -0.88944E+00 -0.71056E+00  0.19000E+01
 -0.88944E+00 -0.88944E+00 -0.60000E+00  0.19063E+01
 -0.88944E+00 -0.71056E+00 -0.10000E+01  0.19056E+01
 -0.88944E+00 -0.71056E+00 -0.88944E+00  0.19000E+01
 -0.88944E+00 -0.71056E+00 -0.71056E+00  0.19159E+01
 -0.88944E+00 -0.71056E+00 -0.60000E+00  0.19394E+01
 -0.88944E+00 -0.60000E+00 -0.10000E+01  0.19000E+01
 -0.88944E+00 -0.60000E+00 -0.88944E+00  0.19063E+01
 -0.88944E+00 -0.60000E+00 -0.71056E+00  0.19394E+01
 -0.88944E+00 -0.60000E+00 -0.60000E+00  0.19701E+01
 -0.71056E+00 -0.10000E+01 -0.10000E+01  0.19226E+01
 -0.71056E+00 -0.10000E+01 -0.88944E+00  0.19056E+01
 -0.71056E+00 -0.10000E+01 -0.71056E+00  0.19026E+01
 -0.71056E+00 -0.10000E+01 -0.60000E+00  0.19159E+01
 -0.71056E+00 -0.88944E+00 -0.10000E+01  0.19056E+01
 -0.71056E+00 -0.88944E+00 -0.88944E+00  0.19000E+01
 -0.71056E+00 -0.88944E+00 -0.71056E+00  0.19159E+01
 -0.71056E+00 -0.88944E+00 -0.60000E+00  0.19394E+01
 -0.71056E+00 -0.71056E+00 -0.10000E+01  0.19026E+01
 -0.71056E+00 -0.71056E+00 -0.88944E+00  0.19159E+01
 -0.71056E+00 -0.71056E+00 -0.71056E+00  0.19577E+01
 -0.71056E+00 -0.71056E+00 -0.60000E+00  0.19911E+01
 -0.71056E+00 -0.60000E+00 -0.10000E+01  0.19159E+01
 -0.71056E+00 -0.60000E+00 -0.88944E+00  0.19394E+01
 -0.71056E+00 -0.60000E+00 -0.71056E+00  0.19911E+01
 -0.71056E+00 -0.60000E+00 -0.60000E+00  0.20255E+01
 -0.60000E+00 -0.10000E+01 -0.10000E+01  0.19056E+01
 -0.60000E+00 -0.10000E+01 -0.88944E+00  0.19000E+01
 -0.60000E+00 -0.10000E+01 -0.71056E+00  0.19159E+01
 -0.60000E+00 -0.10000E+01 -0.60000E+00  0.19394E+01
 -0.60000E+00 -0.88944E+00 -0.10000E+01  0.19000E+01
 -0.60000E+00 -0.88944E+00 -0.88944E+00  0.19063E+01
 -0.60000E+00 -0.88944E+00 -0.71056E+00  0.19394E+01
 -0.60000E+00 -0.88944E+00 -0.60000E+00  0.19701E+01
 -0.60000E+00 -0.71056E+00 -0.10000E+01  0.19159E+01
 -0.60000E+00 -0.71056E+00 -0.88944E+00  0.19394E+01
 -0.60000E+00 -0.71056E+00 -0.71056E+00  0.19911E+01
 -0.60000E+00 -0.71056E+00 -0.60000E+00  0.20255E+01
 -0.60000E+00 -0.60000E+00 -0.10000E+01  0.19394E+01
 -0.60000E+00 -0.60000E+00 -0.88944E+00  0.19701E+01
 -0.60000E+00 -0.60000E+00 -0.71056E+00  0.20255E+01
 -0.60000E+00 -0.60000E+00 -0.60000E+00  0.20569E+01
 ZONE I =           4 ,J=           4 ,K=           4 ,F=POINT
 -0.60000E+00 -0.10000E+01 -0.10000E+01  0.19057E+01
 -0.60000E+00 -0.10000E+01 -0.88944E+00  0.19000E+01
 -0.60000E+00 -0.10000E+01 -0.71056E+00  0.19160E+01
 -0.60000E+00 -0.10000E+01 -0.60000E+00  0.19394E+01
 -0.60000E+00 -0.88944E+00 -0.10000E+01  0.19000E+01
 -0.60000E+00 -0.88944E+00 -0.88944E+00  0.19063E+01
 -0.60000E+00 -0.88944E+00 -0.71056E+00  0.19394E+01
 -0.60000E+00 -0.88944E+00 -0.60000E+00  0.19701E+01
 -0.60000E+00 -0.71056E+00 -0.10000E+01  0.19160E+01
 -0.60000E+00 -0.71056E+00 -0.88944E+00  0.19394E+01
 -0.60000E+00 -0.71056E+00 -0.71056E+00  0.19911E+01
 -0.60000E+00 -0.71056E+00 -0.60000E+00  0.20255E+01
 -0.60000E+00 -0.60000E+00 -0.10000E+01  0.19394E+01
 -0.60000E+00 -0.60000E+00 -0.88944E+00  0.19701E+01
 -0.60000E+00 -0.60000E+00 -0.71056E+00  0.20255E+01
 -0.60000E+00 -0.60000E+00 -0.60000E+00  0.20569E+01
 -0.48944E+00 -0.10000E+01 -0.10000E+01  0.19000E+01
 -0.48944E+00 -0.10000E+01 -0.88944E+00  0.19063E+01
 -0.48944E+00 -0.10000E+01 -0.71056E+00  0.19394E+01
 -0.48944E+00 -0.10000E+01 -0.60000E+00  0.19701E+01
 -0.48944E+00 -0.88944E+00 -0.10000E+01  0.19063E+01
 -0.48944E+00 -0.88944E+00 -0.88944E+00  0.19238E+01
 -0.48944E+00 -0.88944E+00 -0.71056E+00  0.19701E+01
 -0.48944E+00 -0.88944E+00 -0.60000E+00  0.20044E+01
 -0.48944E+00 -0.71056E+00 -0.10000E+01  0.19394E+01
 -0.48944E+00 -0.71056E+00 -0.88944E+00  0.19701E+01
 -0.48944E+00 -0.71056E+00 -0.71056E+00  0.20255E+01
 -0.48944E+00 -0.71056E+00 -0.60000E+00  0.20569E+01
 -0.48944E+00 -0.60000E+00 -0.10000E+01  0.19701E+01
 -0.48944E+00 -0.60000E+00 -0.88944E+00  0.20044E+01
 -0.48944E+00 -0.60000E+00 -0.71056E+00  0.20569E+01
 -0.48944E+00 -0.60000E+00 -0.60000E+00  0.20815E+01
 -0.31056E+00 -0.10000E+01 -0.10000E+01  0.19160E+01
 -0.31056E+00 -0.10000E+01 -0.88944E+00  0.19394E+01
 -0.31056E+00 -0.10000E+01 -0.71056E+00  0.19911E+01
 -0.31056E+00 -0.10000E+01 -0.60000E+00  0.20255E+01
 -0.31056E+00 -0.88944E+00 -0.10000E+01  0.19394E+01
 -0.31056E+00 -0.88944E+00 -0.88944E+00  0.19701E+01
 -0.31056E+00 -0.88944E+00 -0.71056E+00  0.20255E+01
 -0.31056E+00 -0.88944E+00 -0.60000E+00  0.20569E+01
 -0.31056E+00 -0.71056E+00 -0.10000E+01  0.19911E+01
 -0.31056E+00 -0.71056E+00 -0.88944E+00  0.20255E+01
 -0.31056E+00 -0.71056E+00 -0.71056E+00  0.20731E+01
 -0.31056E+00 -0.71056E+00 -0.60000E+00  0.20920E+01
 -0.31056E+00 -0.60000E+00 -0.10000E+01  0.20255E+01
 -0.31056E+00 -0.60000E+00 -0.88944E+00  0.20569E+01
 -0.31056E+00 -0.60000E+00 -0.71056E+00  0.20920E+01
 -0.31056E+00 -0.60000E+00 -0.60000E+00  0.20999E+01
 -0.20000E+00 -0.10000E+01 -0.10000E+01  0.19394E+01
 -0.20000E+00 -0.10000E+01 -0.88944E+00  0.19701E+01
 -0.20000E+00 -0.10000E+01 -0.71056E+00  0.20255E+01
 -0.20000E+00 -0.10000E+01 -0.60000E+00  0.20569E+01
 -0.20000E+00 -0.88944E+00 -0.10000E+01  0.19701E+01
 -0.20000E+00 -0.88944E+00 -0.88944E+00  0.20044E+01
 -0.20000E+00 -0.88944E+00 -0.71056E+00  0.20569E+01
 -0.20000E+00 -0.88944E+00 -0.60000E+00  0.20815E+01
 -0.20000E+00 -0.71056E+00 -0.10000E+01  0.20255E+01
 -0.20000E+00 -0.71056E+00 -0.88944E+00  0.20569E+01
 -0.20000E+00 -0.71056E+00 -0.71056E+00  0.20920E+01
 -0.20000E+00 -0.71056E+00 -0.60000E+00  0.20999E+01
 -0.20000E+00 -0.60000E+00 -0.10000E+01  0.20569E+01
 -0.20000E+00 -0.60000E+00 -0.88944E+00  0.20815E+01
 -0.20000E+00 -0.60000E+00 -0.71056E+00  0.20999E+01
 -0.20000E+00 -0.60000E+00 -0.60000E+00  0.20958E+01
 ZONE I =           4 ,J=           4 ,K=           4 ,F=POINT
 -0.20000E+00 -0.10000E+01 -0.10000E+01  0.19394E+01
 -0.20000E+00 -0.10000E+01 -0.88944E+00  0.19701E+01
 -0.20000E+00 -0.10000E+01 -0.71056E+00  0.20255E+01
 -0.20000E+00 -0.10000E+01 -0.60000E+00  0.20569E+01
 -0.20000E+00 -0.88944E+00 -0.10000E+01  0.19701E+01
 -0.20000E+00 -0.88944E+00 -0.88944E+00  0.20044E+01
 -0.20000E+00 -0.88944E+00 -0.71056E+00  0.20569E+01
 -0.20000E+00 -0.88944E+00 -0.60000E+00  0.20815E+01
 -0.20000E+00 -0.71056E+00 -0.10000E+01  0.20255E+01
 -0.20000E+00 -0.71056E+00 -0.88944E+00  0.20569E+01
 -0.20000E+00 -0.71056E+00 -0.71056E+00  0.20919E+01
 -0.20000E+00 -0.71056E+00 -0.60000E+00  0.20998E+01
 -0.20000E+00 -0.60000E+00 -0.10000E+01  0.20569E+01
 -0.20000E+00 -0.60000E+00 -0.88944E+00  0.20815E+01
 -0.20000E+00 -0.60000E+00 -0.71056E+00  0.20998E+01
 -0.20000E+00 -0.60000E+00 -0.60000E+00  0.20958E+01
 -0.89443E-01 -0.10000E+01 -0.10000E+01  0.19701E+01
 -0.89443E-01 -0.10000E+01 -0.88944E+00  0.20044E+01
 -0.89443E-01 -0.10000E+01 -0.71056E+00  0.20569E+01
 -0.89443E-01 -0.10000E+01 -0.60000E+00  0.20815E+01
 -0.89443E-01 -0.88944E+00 -0.10000E+01  0.20044E+01
 -0.89443E-01 -0.88944E+00 -0.88944E+00  0.20381E+01
 -0.89443E-01 -0.88944E+00 -0.71056E+00  0.20815E+01
 -0.89443E-01 -0.88944E+00 -0.60000E+00  0.20964E+01
 -0.89443E-01 -0.71056E+00 -0.10000E+01  0.20569E+01
 -0.89443E-01 -0.71056E+00 -0.88944E+00  0.20815E+01
 -0.89443E-01 -0.71056E+00 -0.71056E+00  0.20998E+01
 -0.89443E-01 -0.71056E+00 -0.60000E+00  0.20958E+01
 -0.89443E-01 -0.60000E+00 -0.10000E+01  0.20815E+01
 -0.89443E-01 -0.60000E+00 -0.88944E+00  0.20964E+01
 -0.89443E-01 -0.60000E+00 -0.71056E+00  0.20958E+01
 -0.89443E-01 -0.60000E+00 -0.60000E+00  0.20803E+01
  0.89443E-01 -0.10000E+01 -0.10000E+01  0.20255E+01
  0.89443E-01 -0.10000E+01 -0.88944E+00  0.20569E+01
  0.89443E-01 -0.10000E+01 -0.71056E+00  0.20919E+01
  0.89443E-01 -0.10000E+01 -0.60000E+00  0.20998E+01
  0.89443E-01 -0.88944E+00 -0.10000E+01  0.20569E+01
  0.89443E-01 -0.88944E+00 -0.88944E+00  0.20815E+01
  0.89443E-01 -0.88944E+00 -0.71056E+00  0.20998E+01
  0.89443E-01 -0.88944E+00 -0.60000E+00  0.20958E+01
  0.89443E-01 -0.71056E+00 -0.10000E+01  0.20919E+01
  0.89443E-01 -0.71056E+00 -0.88944E+00  0.20998E+01
  0.89443E-01 -0.71056E+00 -0.71056E+00  0.20874E+01
  0.89443E-01 -0.71056E+00 -0.60000E+00  0.20657E+01
  0.89443E-01 -0.60000E+00 -0.10000E+01  0.20998E+01
  0.89443E-01 -0.60000E+00 -0.88944E+00  0.20958E+01
  0.89443E-01 -0.60000E+00 -0.71056E+00  0.20657E+01
  0.89443E-01 -0.60000E+00 -0.60000E+00  0.20362E+01
  0.20000E+00 -0.10000E+01 -0.10000E+01  0.20569E+01
  0.20000E+00 -0.10000E+01 -0.88944E+00  0.20815E+01
  0.20000E+00 -0.10000E+01 -0.71056E+00  0.20998E+01
  0.20000E+00 -0.10000E+01 -0.60000E+00  0.20958E+01
  0.20000E+00 -0.88944E+00 -0.10000E+01  0.20815E+01
  0.20000E+00 -0.88944E+00 -0.88944E+00  0.20964E+01
  0.20000E+00 -0.88944E+00 -0.71056E+00  0.20958E+01
  0.20000E+00 -0.88944E+00 -0.60000E+00  0.20803E+01
  0.20000E+00 -0.71056E+00 -0.10000E+01  0.20998E+01
  0.20000E+00 -0.71056E+00 -0.88944E+00  0.20958E+01
  0.20000E+00 -0.71056E+00 -0.71056E+00  0.20657E+01
  0.20000E+00 -0.71056E+00 -0.60000E+00  0.20362E+01
  0.20000E+00 -0.60000E+00 -0.10000E+01  0.20958E+01
  0.20000E+00 -0.60000E+00 -0.88944E+00  0.20803E+01
  0.20000E+00 -0.60000E+00 -0.71056E+00  0.20362E+01
  0.20000E+00 -0.60000E+00 -0.60000E+00  0.20023E+01
 ZONE I =           4 ,J=           4 ,K=           4 ,F=POINT
  0.20000E+00 -0.10000E+01 -0.10000E+01  0.20569E+01
  0.20000E+00 -0.10000E+01 -0.88944E+00  0.20815E+01
  0.20000E+00 -0.10000E+01 -0.71056E+00  0.20998E+01
  0.20000E+00 -0.10000E+01 -0.60000E+00  0.20958E+01
  0.20000E+00 -0.88944E+00 -0.10000E+01  0.20815E+01
  0.20000E+00 -0.88944E+00 -0.88944E+00  0.20964E+01
  0.20000E+00 -0.88944E+00 -0.71056E+00  0.20958E+01
  0.20000E+00 -0.88944E+00 -0.60000E+00  0.20803E+01
  0.20000E+00 -0.71056E+00 -0.10000E+01  0.20998E+01
  0.20000E+00 -0.71056E+00 -0.88944E+00  0.20958E+01
  0.20000E+00 -0.71056E+00 -0.71056E+00  0.20657E+01
  0.20000E+00 -0.71056E+00 -0.60000E+00  0.20362E+01
  0.20000E+00 -0.60000E+00 -0.10000E+01  0.20958E+01
  0.20000E+00 -0.60000E+00 -0.88944E+00  0.20803E+01
  0.20000E+00 -0.60000E+00 -0.71056E+00  0.20362E+01
  0.20000E+00 -0.60000E+00 -0.60000E+00  0.20023E+01
  0.31056E+00 -0.10000E+01 -0.10000E+01  0.20815E+01
  0.31056E+00 -0.10000E+01 -0.88944E+00  0.20964E+01
  0.31056E+00 -0.10000E+01 -0.71056E+00  0.20958E+01
  0.31056E+00 -0.10000E+01 -0.60000E+00  0.20803E+01
  0.31056E+00 -0.88944E+00 -0.10000E+01  0.20964E+01
  0.31056E+00 -0.88944E+00 -0.88944E+00  0.20997E+01
  0.31056E+00 -0.88944E+00 -0.71056E+00  0.20803E+01
  0.31056E+00 -0.88944E+00 -0.60000E+00  0.20552E+01
  0.31056E+00 -0.71056E+00 -0.10000E+01  0.20958E+01
  0.31056E+00 -0.71056E+00 -0.88944E+00  0.20803E+01
  0.31056E+00 -0.71056E+00 -0.71056E+00  0.20362E+01
  0.31056E+00 -0.71056E+00 -0.60000E+00  0.20023E+01
  0.31056E+00 -0.60000E+00 -0.10000E+01  0.20803E+01
  0.31056E+00 -0.60000E+00 -0.88944E+00  0.20552E+01
  0.31056E+00 -0.60000E+00 -0.71056E+00  0.20023E+01
  0.31056E+00 -0.60000E+00 -0.60000E+00  0.19681E+01
  0.48944E+00 -0.10000E+01 -0.10000E+01  0.20998E+01
  0.48944E+00 -0.10000E+01 -0.88944E+00  0.20958E+01
  0.48944E+00 -0.10000E+01 -0.71056E+00  0.20657E+01
  0.48944E+00 -0.10000E+01 -0.60000E+00  0.20362E+01
  0.48944E+00 -0.88944E+00 -0.10000E+01  0.20958E+01
  0.48944E+00 -0.88944E+00 -0.88944E+00  0.20803E+01
  0.48944E+00 -0.88944E+00 -0.71056E+00  0.20362E+01
  0.48944E+00 -0.88944E+00 -0.60000E+00  0.20023E+01
  0.48944E+00 -0.71056E+00 -0.10000E+01  0.20657E+01
  0.48944E+00 -0.71056E+00 -0.88944E+00  0.20362E+01
  0.48944E+00 -0.71056E+00 -0.71056E+00  0.19809E+01
  0.48944E+00 -0.71056E+00 -0.60000E+00  0.19487E+01
  0.48944E+00 -0.60000E+00 -0.10000E+01  0.20362E+01
  0.48944E+00 -0.60000E+00 -0.88944E+00  0.20023E+01
  0.48944E+00 -0.60000E+00 -0.71056E+00  0.19487E+01
  0.48944E+00 -0.60000E+00 -0.60000E+00  0.19225E+01
  0.60000E+00 -0.10000E+01 -0.10000E+01  0.20958E+01
  0.60000E+00 -0.10000E+01 -0.88944E+00  0.20803E+01
  0.60000E+00 -0.10000E+01 -0.71056E+00  0.20362E+01
  0.60000E+00 -0.10000E+01 -0.60000E+00  0.20023E+01
  0.60000E+00 -0.88944E+00 -0.10000E+01  0.20803E+01
  0.60000E+00 -0.88944E+00 -0.88944E+00  0.20552E+01
  0.60000E+00 -0.88944E+00 -0.71056E+00  0.20023E+01
  0.60000E+00 -0.88944E+00 -0.60000E+00  0.19681E+01
  0.60000E+00 -0.71056E+00 -0.10000E+01  0.20362E+01
  0.60000E+00 -0.71056E+00 -0.88944E+00  0.20023E+01
  0.60000E+00 -0.71056E+00 -0.71056E+00  0.19487E+01
  0.60000E+00 -0.71056E+00 -0.60000E+00  0.19225E+01
  0.60000E+00 -0.60000E+00 -0.10000E+01  0.20023E+01
  0.60000E+00 -0.60000E+00 -0.88944E+00  0.19681E+01
  0.60000E+00 -0.60000E+00 -0.71056E+00  0.19225E+01
  0.60000E+00 -0.60000E+00 -0.60000E+00  0.19056E+01
 ZONE I =           4 ,J=           4 ,K=           4 ,F=POINT
  0.60000E+00 -0.10000E+01 -0.10000E+01  0.20957E+01
  0.60000E+00 -0.10000E+01 -0.88944E+00  0.20803E+01
  0.60000E+00 -0.10000E+01 -0.71056E+00  0.20362E+01
  0.60000E+00 -0.10000E+01 -0.60000E+00  0.20023E+01
  0.60000E+00 -0.88944E+00 -0.10000E+01  0.20803E+01
  0.60000E+00 -0.88944E+00 -0.88944E+00  0.20552E+01
  0.60000E+00 -0.88944E+00 -0.71056E+00  0.20023E+01
  0.60000E+00 -0.88944E+00 -0.60000E+00  0.19681E+01
  0.60000E+00 -0.71056E+00 -0.10000E+01  0.20362E+01
  0.60000E+00 -0.71056E+00 -0.88944E+00  0.20023E+01
  0.60000E+00 -0.71056E+00 -0.71056E+00  0.19487E+01
  0.60000E+00 -0.71056E+00 -0.60000E+00  0.19225E+01
  0.60000E+00 -0.60000E+00 -0.10000E+01  0.20023E+01
  0.60000E+00 -0.60000E+00 -0.88944E+00  0.19681E+01
  0.60000E+00 -0.60000E+00 -0.71056E+00  0.19225E+01
  0.60000E+00 -0.60000E+00 -0.60000E+00  0.19056E+01
  0.71056E+00 -0.10000E+01 -0.10000E+01  0.20803E+01
  0.71056E+00 -0.10000E+01 -0.88944E+00  0.20552E+01
  0.71056E+00 -0.10000E+01 -0.71056E+00  0.20023E+01
  0.71056E+00 -0.10000E+01 -0.60000E+00  0.19681E+01
  0.71056E+00 -0.88944E+00 -0.10000E+01  0.20552E+01
  0.71056E+00 -0.88944E+00 -0.88944E+00  0.20235E+01
  0.71056E+00 -0.88944E+00 -0.71056E+00  0.19681E+01
  0.71056E+00 -0.88944E+00 -0.60000E+00  0.19377E+01
  0.71056E+00 -0.71056E+00 -0.10000E+01  0.20023E+01
  0.71056E+00 -0.71056E+00 -0.88944E+00  0.19681E+01
  0.71056E+00 -0.71056E+00 -0.71056E+00  0.19225E+01
  0.71056E+00 -0.71056E+00 -0.60000E+00  0.19056E+01
  0.71056E+00 -0.60000E+00 -0.10000E+01  0.19681E+01
  0.71056E+00 -0.60000E+00 -0.88944E+00  0.19377E+01
  0.71056E+00 -0.60000E+00 -0.71056E+00  0.19056E+01
  0.71056E+00 -0.60000E+00 -0.60000E+00  0.19000E+01
  0.88944E+00 -0.10000E+01 -0.10000E+01  0.20362E+01
  0.88944E+00 -0.10000E+01 -0.88944E+00  0.20023E+01
  0.88944E+00 -0.10000E+01 -0.71056E+00  0.19487E+01
  0.88944E+00 -0.10000E+01 -0.60000E+00  0.19225E+01
  0.88944E+00 -0.88944E+00 -0.10000E+01  0.20023E+01
  0.88944E+00 -0.88944E+00 -0.88944E+00  0.19681E+01
  0.88944E+00 -0.88944E+00 -0.71056E+00  0.19225E+01
  0.88944E+00 -0.88944E+00 -0.60000E+00  0.19056E+01
  0.88944E+00 -0.71056E+00 -0.10000E+01  0.19487E+01
  0.88944E+00 -0.71056E+00 -0.88944E+00  0.19225E+01
  0.88944E+00 -0.71056E+00 -0.71056E+00  0.19008E+01
  0.88944E+00 -0.71056E+00 -0.60000E+00  0.19025E+01
  0.88944E+00 -0.60000E+00 -0.10000E+01  0.19225E+01
  0.88944E+00 -0.60000E+00 -0.88944E+00  0.19056E+01
  0.88944E+00 -0.60000E+00 -0.71056E+00  0.19025E+01
  0.88944E+00 -0.60000E+00 -0.60000E+00  0.19159E+01
  0.10000E+01 -0.10000E+01 -0.10000E+01  0.20023E+01
  0.10000E+01 -0.10000E+01 -0.88944E+00  0.19681E+01
  0.10000E+01 -0.10000E+01 -0.71056E+00  0.19225E+01
  0.10000E+01 -0.10000E+01 -0.60000E+00  0.19056E+01
  0.10000E+01 -0.88944E+00 -0.10000E+01  0.19681E+01
  0.10000E+01 -0.88944E+00 -0.88944E+00  0.19377E+01
  0.10000E+01 -0.88944E+00 -0.71056E+00  0.19056E+01
  0.10000E+01 -0.88944E+00 -0.60000E+00  0.19000E+01
  0.10000E+01 -0.71056E+00 -0.10000E+01  0.19225E+01
  0.10000E+01 -0.71056E+00 -0.88944E+00  0.19056E+01
  0.10000E+01 -0.71056E+00 -0.71056E+00  0.19025E+01
  0.10000E+01 -0.71056E+00 -0.60000E+00  0.19159E+01
  0.10000E+01 -0.60000E+00 -0.10000E+01  0.19056E+01
  0.10000E+01 -0.60000E+00 -0.88944E+00  0.19000E+01
  0.10000E+01 -0.60000E+00 -0.71056E+00  0.19159E+01
  0.10000E+01 -0.60000E+00 -0.60000E+00  0.19394E+01
 ZONE I =           4 ,J=           4 ,K=           4 ,F=POINT
 -0.10000E+01 -0.60000E+00 -0.10000E+01  0.19057E+01
 -0.10000E+01 -0.60000E+00 -0.88944E+00  0.19000E+01
 -0.10000E+01 -0.60000E+00 -0.71056E+00  0.19160E+01
 -0.10000E+01 -0.60000E+00 -0.60000E+00  0.19394E+01
 -0.10000E+01 -0.48944E+00 -0.10000E+01  0.19000E+01
 -0.10000E+01 -0.48944E+00 -0.88944E+00  0.19063E+01
 -0.10000E+01 -0.48944E+00 -0.71056E+00  0.19394E+01
 -0.10000E+01 -0.48944E+00 -0.60000E+00  0.19701E+01
 -0.10000E+01 -0.31056E+00 -0.10000E+01  0.19160E+01
 -0.10000E+01 -0.31056E+00 -0.88944E+00  0.19394E+01
 -0.10000E+01 -0.31056E+00 -0.71056E+00  0.19911E+01
 -0.10000E+01 -0.31056E+00 -0.60000E+00  0.20255E+01
 -0.10000E+01 -0.20000E+00 -0.10000E+01  0.19394E+01
 -0.10000E+01 -0.20000E+00 -0.88944E+00  0.19701E+01
 -0.10000E+01 -0.20000E+00 -0.71056E+00  0.20255E+01
 -0.10000E+01 -0.20000E+00 -0.60000E+00  0.20569E+01
 -0.88944E+00 -0.60000E+00 -0.10000E+01  0.19000E+01
 -0.88944E+00 -0.60000E+00 -0.88944E+00  0.19063E+01
 -0.88944E+00 -0.60000E+00 -0.71056E+00  0.19394E+01
 -0.88944E+00 -0.60000E+00 -0.60000E+00  0.19701E+01
 -0.88944E+00 -0.48944E+00 -0.10000E+01  0.19063E+01
 -0.88944E+00 -0.48944E+00 -0.88944E+00  0.19238E+01
 -0.88944E+00 -0.48944E+00 -0.71056E+00  0.19701E+01
 -0.88944E+00 -0.48944E+00 -0.60000E+00  0.20044E+01
 -0.88944E+00 -0.31056E+00 -0.10000E+01  0.19394E+01
 -0.88944E+00 -0.31056E+00 -0.88944E+00  0.19701E+01
 -0.88944E+00 -0.31056E+00 -0.71056E+00  0.20255E+01
 -0.88944E+00 -0.31056E+00 -0.60000E+00  0.20569E+01
 -0.88944E+00 -0.20000E+00 -0.10000E+01  0.19701E+01
 -0.88944E+00 -0.20000E+00 -0.88944E+00  0.20044E+01
 -0.88944E+00 -0.20000E+00 -0.71056E+00  0.20569E+01
 -0.88944E+00 -0.20000E+00 -0.60000E+00  0.20815E+01
 -0.71056E+00 -0.60000E+00 -0.10000E+01  0.19160E+01
 -0.71056E+00 -0.60000E+00 -0.88944E+00  0.19394E+01
 -0.71056E+00 -0.60000E+00 -0.71056E+00  0.19911E+01
 -0.71056E+00 -0.60000E+00 -0.60000E+00  0.20255E+01
 -0.71056E+00 -0.48944E+00 -0.10000E+01  0.19394E+01
 -0.71056E+00 -0.48944E+00 -0.88944E+00  0.19701E+01
 -0.71056E+00 -0.48944E+00 -0.71056E+00  0.20255E+01
 -0.71056E+00 -0.48944E+00 -0.60000E+00  0.20569E+01
 -0.71056E+00 -0.31056E+00 -0.10000E+01  0.19911E+01
 -0.71056E+00 -0.31056E+00 -0.88944E+00  0.20255E+01
 -0.71056E+00 -0.31056E+00 -0.71056E+00  0.20731E+01
 -0.71056E+00 -0.31056E+00 -0.60000E+00  0.20920E+01
 -0.71056E+00 -0.20000E+00 -0.10000E+01  0.20255E+01
 -0.71056E+00 -0.20000E+00 -0.88944E+00  0.20569E+01
 -0.71056E+00 -0.20000E+00 -0.71056E+00  0.20920E+01
 -0.71056E+00 -0.20000E+00 -0.60000E+00  0.20999E+01
 -0.60000E+00 -0.60000E+00 -0.10000E+01  0.19394E+01
 -0.60000E+00 -0.60000E+00 -0.88944E+00  0.19701E+01
 -0.60000E+00 -0.60000E+00 -0.71056E+00  0.20255E+01
 -0.60000E+00 -0.60000E+00 -0.60000E+00  0.20569E+01
 -0.60000E+00 -0.48944E+00 -0.10000E+01  0.19701E+01
 -0.60000E+00 -0.48944E+00 -0.88944E+00  0.20044E+01
 -0.60000E+00 -0.48944E+00 -0.71056E+00  0.20569E+01
 -0.60000E+00 -0.48944E+00 -0.60000E+00  0.20815E+01
 -0.60000E+00 -0.31056E+00 -0.10000E+01  0.20255E+01
 -0.60000E+00 -0.31056E+00 -0.88944E+00  0.20569E+01
 -0.60000E+00 -0.31056E+00 -0.71056E+00  0.20920E+01
 -0.60000E+00 -0.31056E+00 -0.60000E+00  0.20999E+01
 -0.60000E+00 -0.20000E+00 -0.10000E+01  0.20569E+01
 -0.60000E+00 -0.20000E+00 -0.88944E+00  0.20815E+01
 -0.60000E+00 -0.20000E+00 -0.71056E+00  0.20999E+01
 -0.60000E+00 -0.20000E+00 -0.60000E+00  0.20958E+01
 ZONE I =           4 ,J=           4 ,K=           4 ,F=POINT
 -0.60000E+00 -0.60000E+00 -0.10000E+01  0.19394E+01
 -0.60000E+00 -0.60000E+00 -0.88944E+00  0.19701E+01
 -0.60000E+00 -0.60000E+00 -0.71056E+00  0.20255E+01
 -0.60000E+00 -0.60000E+00 -0.60000E+00  0.20569E+01
 -0.60000E+00 -0.48944E+00 -0.10000E+01  0.19701E+01
 -0.60000E+00 -0.48944E+00 -0.88944E+00  0.20044E+01
 -0.60000E+00 -0.48944E+00 -0.71056E+00  0.20569E+01
 -0.60000E+00 -0.48944E+00 -0.60000E+00  0.20815E+01
 -0.60000E+00 -0.31056E+00 -0.10000E+01  0.20255E+01
 -0.60000E+00 -0.31056E+00 -0.88944E+00  0.20569E+01
 -0.60000E+00 -0.31056E+00 -0.71056E+00  0.20919E+01
 -0.60000E+00 -0.31056E+00 -0.60000E+00  0.20998E+01
 -0.60000E+00 -0.20000E+00 -0.10000E+01  0.20569E+01
 -0.60000E+00 -0.20000E+00 -0.88944E+00  0.20815E+01
 -0.60000E+00 -0.20000E+00 -0.71056E+00  0.20998E+01
 -0.60000E+00 -0.20000E+00 -0.60000E+00  0.20958E+01
 -0.48944E+00 -0.60000E+00 -0.10000E+01  0.19701E+01
 -0.48944E+00 -0.60000E+00 -0.88944E+00  0.20044E+01
 -0.48944E+00 -0.60000E+00 -0.71056E+00  0.20569E+01
 -0.48944E+00 -0.60000E+00 -0.60000E+00  0.20815E+01
 -0.48944E+00 -0.48944E+00 -0.10000E+01  0.20044E+01
 -0.48944E+00 -0.48944E+00 -0.88944E+00  0.20381E+01
 -0.48944E+00 -0.48944E+00 -0.71056E+00  0.20815E+01
 -0.48944E+00 -0.48944E+00 -0.60000E+00  0.20964E+01
 -0.48944E+00 -0.31056E+00 -0.10000E+01  0.20569E+01
 -0.48944E+00 -0.31056E+00 -0.88944E+00  0.20815E+01
 -0.48944E+00 -0.31056E+00 -0.71056E+00  0.20998E+01
 -0.48944E+00 -0.31056E+00 -0.60000E+00  0.20958E+01
 -0.48944E+00 -0.20000E+00 -0.10000E+01  0.20815E+01
 -0.48944E+00 -0.20000E+00 -0.88944E+00  0.20964E+01
 -0.48944E+00 -0.20000E+00 -0.71056E+00  0.20958E+01
 -0.48944E+00 -0.20000E+00 -0.60000E+00  0.20803E+01
 -0.31056E+00 -0.60000E+00 -0.10000E+01  0.20255E+01
 -0.31056E+00 -0.60000E+00 -0.88944E+00  0.20569E+01
 -0.31056E+00 -0.60000E+00 -0.71056E+00  0.20919E+01
 -0.31056E+00 -0.60000E+00 -0.60000E+00  0.20998E+01
 -0.31056E+00 -0.48944E+00 -0.10000E+01  0.20569E+01
 -0.31056E+00 -0.48944E+00 -0.88944E+00  0.20815E+01
 -0.31056E+00 -0.48944E+00 -0.71056E+00  0.20998E+01
 -0.31056E+00 -0.48944E+00 -0.60000E+00  0.20958E+01
 -0.31056E+00 -0.31056E+00 -0.10000E+01  0.20919E+01
 -0.31056E+00 -0.31056E+00 -0.88944E+00  0.20998E+01
 -0.31056E+00 -0.31056E+00 -0.71056E+00  0.20874E+01
 -0.31056E+00 -0.31056E+00 -0.60000E+00  0.20657E+01
 -0.31056E+00 -0.20000E+00 -0.10000E+01  0.20998E+01
 -0.31056E+00 -0.20000E+00 -0.88944E+00  0.20958E+01
 -0.31056E+00 -0.20000E+00 -0.71056E+00  0.20657E+01
 -0.31056E+00 -0.20000E+00 -0.60000E+00  0.20362E+01
 -0.20000E+00 -0.60000E+00 -0.10000E+01  0.20569E+01
 -0.20000E+00 -0.60000E+00 -0.88944E+00  0.20815E+01
 -0.20000E+00 -0.60000E+00 -0.71056E+00  0.20998E+01
 -0.20000E+00 -0.60000E+00 -0.60000E+00  0.20958E+01
 -0.20000E+00 -0.48944E+00 -0.10000E+01  0.20815E+01
 -0.20000E+00 -0.48944E+00 -0.88944E+00  0.20964E+01
 -0.20000E+00 -0.48944E+00 -0.71056E+00  0.20958E+01
 -0.20000E+00 -0.48944E+00 -0.60000E+00  0.20803E+01
 -0.20000E+00 -0.31056E+00 -0.10000E+01  0.20998E+01
 -0.20000E+00 -0.31056E+00 -0.88944E+00  0.20958E+01
 -0.20000E+00 -0.31056E+00 -0.71056E+00  0.20657E+01
 -0.20000E+00 -0.31056E+00 -0.60000E+00  0.20362E+01
 -0.20000E+00 -0.20000E+00 -0.10000E+01  0.20958E+01
 -0.20000E+00 -0.20000E+00 -0.88944E+00  0.20803E+01
 -0.20000E+00 -0.20000E+00 -0.71056E+00  0.20362E+01
 -0.20000E+00 -0.20000E+00 -0.60000E+00  0.20023E+01
 ZONE I =           4 ,J=           4 ,K=           4 ,F=POINT
 -0.20000E+00 -0.60000E+00 -0.10000E+01  0.20569E+01
 -0.20000E+00 -0.60000E+00 -0.88944E+00  0.20815E+01
 -0.20000E+00 -0.60000E+00 -0.71056E+00  0.20998E+01
 -0.20000E+00 -0.60000E+00 -0.60000E+00  0.20958E+01
 -0.20000E+00 -0.48944E+00 -0.10000E+01  0.20815E+01
 -0.20000E+00 -0.48944E+00 -0.88944E+00  0.20964E+01
 -0.20000E+00 -0.48944E+00 -0.71056E+00  0.20958E+01
 -0.20000E+00 -0.48944E+00 -0.60000E+00  0.20803E+01
 -0.20000E+00 -0.31056E+00 -0.10000E+01  0.20998E+01
 -0.20000E+00 -0.31056E+00 -0.88944E+00  0.20958E+01
 -0.20000E+00 -0.31056E+00 -0.71056E+00  0.20657E+01
 -0.20000E+00 -0.31056E+00 -0.60000E+00  0.20362E+01
 -0.20000E+00 -0.20000E+00 -0.10000E+01  0.20958E+01
 -0.20000E+00 -0.20000E+00 -0.88944E+00  0.20803E+01
 -0.20000E+00 -0.20000E+00 -0.71056E+00  0.20362E+01
 -0.20000E+00 -0.20000E+00 -0.60000E+00  0.20023E+01
 -0.89443E-01 -0.60000E+00 -0.10000E+01  0.20815E+01
 -0.89443E-01 -0.60000E+00 -0.88944E+00  0.20964E+01
 -0.89443E-01 -0.60000E+00 -0.71056E+00  0.20958E+01
 -0.89443E-01 -0.60000E+00 -0.60000E+00  0.20803E+01
 -0.89443E-01 -0.48944E+00 -0.10000E+01  0.20964E+01
 -0.89443E-01 -0.48944E+00 -0.88944E+00  0.20997E+01
 -0.89443E-01 -0.48944E+00 -0.71056E+00  0.20803E+01
 -0.89443E-01 -0.48944E+00 -0.60000E+00  0.20552E+01
 -0.89443E-01 -0.31056E+00 -0.10000E+01  0.20958E+01
 -0.89443E-01 -0.31056E+00 -0.88944E+00  0.20803E+01
 -0.89443E-01 -0.31056E+00 -0.71056E+00  0.20362E+01
 -0.89443E-01 -0.31056E+00 -0.60000E+00  0.20023E+01
 -0.89443E-01 -0.20000E+00 -0.10000E+01  0.20803E+01
 -0.89443E-01 -0.20000E+00 -0.88944E+00  0.20552E+01
 -0.89443E-01 -0.20000E+00 -0.71056E+00  0.20023E+01
 -0.89443E-01 -0.20000E+00 -0.60000E+00  0.19681E+01
  0.89443E-01 -0.60000E+00 -0.10000E+01  0.20998E+01
  0.89443E-01 -0.60000E+00 -0.88944E+00  0.20958E+01
  0.89443E-01 -0.60000E+00 -0.71056E+00  0.20657E+01
  0.89443E-01 -0.60000E+00 -0.60000E+00  0.20362E+01
  0.89443E-01 -0.48944E+00 -0.10000E+01  0.20958E+01
  0.89443E-01 -0.48944E+00 -0.88944E+00  0.20803E+01
  0.89443E-01 -0.48944E+00 -0.71056E+00  0.20362E+01
  0.89443E-01 -0.48944E+00 -0.60000E+00  0.20023E+01
  0.89443E-01 -0.31056E+00 -0.10000E+01  0.20657E+01
  0.89443E-01 -0.31056E+00 -0.88944E+00  0.20362E+01
  0.89443E-01 -0.31056E+00 -0.71056E+00  0.19809E+01
  0.89443E-01 -0.31056E+00 -0.60000E+00  0.19487E+01
  0.89443E-01 -0.20000E+00 -0.10000E+01  0.20362E+01
  0.89443E-01 -0.20000E+00 -0.88944E+00  0.20023E+01
  0.89443E-01 -0.20000E+00 -0.71056E+00  0.19487E+01
  0.89443E-01 -0.20000E+00 -0.60000E+00  0.19225E+01
  0.20000E+00 -0.60000E+00 -0.10000E+01  0.20958E+01
  0.20000E+00 -0.60000E+00 -0.88944E+00  0.20803E+01
  0.20000E+00 -0.60000E+00 -0.71056E+00  0.20362E+01
  0.20000E+00 -0.60000E+00 -0.60000E+00  0.20023E+01
  0.20000E+00 -0.48944E+00 -0.10000E+01  0.20803E+01
  0.20000E+00 -0.48944E+00 -0.88944E+00  0.20552E+01
  0.20000E+00 -0.48944E+00 -0.71056E+00  0.20023E+01
  0.20000E+00 -0.48944E+00 -0.60000E+00  0.19681E+01
  0.20000E+00 -0.31056E+00 -0.10000E+01  0.20362E+01
  0.20000E+00 -0.31056E+00 -0.88944E+00  0.20023E+01
  0.20000E+00 -0.31056E+00 -0.71056E+00  0.19487E+01
  0.20000E+00 -0.31056E+00 -0.60000E+00  0.19225E+01
  0.20000E+00 -0.20000E+00 -0.10000E+01  0.20023E+01
  0.20000E+00 -0.20000E+00 -0.88944E+00  0.19681E+01
  0.20000E+00 -0.20000E+00 -0.71056E+00  0.19225E+01
  0.20000E+00 -0.20000E+00 -0.60000E+00  0.19056E+01
 ZONE I =           4 ,J=           4 ,K=           4 ,F=POINT
  0.20000E+00 -0.60000E+00 -0.10000E+01  0.20957E+01
  0.20000E+00 -0.60000E+00 -0.88944E+00  0.20803E+01
  0.20000E+00 -0.60000E+00 -0.71056E+00  0.20362E+01
  0.20000E+00 -0.60000E+00 -0.60000E+00  0.20023E+01
  0.20000E+00 -0.48944E+00 -0.10000E+01  0.20803E+01
  0.20000E+00 -0.48944E+00 -0.88944E+00  0.20552E+01
  0.20000E+00 -0.48944E+00 -0.71056E+00  0.20023E+01
  0.20000E+00 -0.48944E+00 -0.60000E+00  0.19681E+01
  0.20000E+00 -0.31056E+00 -0.10000E+01  0.20362E+01
  0.20000E+00 -0.31056E+00 -0.88944E+00  0.20023E+01
  0.20000E+00 -0.31056E+00 -0.71056E+00  0.19487E+01
  0.20000E+00 -0.31056E+00 -0.60000E+00  0.19225E+01
  0.20000E+00 -0.20000E+00 -0.10000E+01  0.20023E+01
  0.20000E+00 -0.20000E+00 -0.88944E+00  0.19681E+01
  0.20000E+00 -0.20000E+00 -0.71056E+00  0.19225E+01
  0.20000E+00 -0.20000E+00 -0.60000E+00  0.19056E+01
  0.31056E+00 -0.60000E+00 -0.10000E+01  0.20803E+01
  0.31056E+00 -0.60000E+00 -0.88944E+00  0.20552E+01
  0.31056E+00 -0.60000E+00 -0.71056E+00  0.20023E+01
  0.31056E+00 -0.60000E+00 -0.60000E+00  0.19681E+01
  0.31056E+00 -0.48944E+00 -0.10000E+01  0.20552E+01
  0.31056E+00 -0.48944E+00 -0.88944E+00  0.20235E+01
  0.31056E+00 -0.48944E+00 -0.71056E+00  0.19681E+01
  0.31056E+00 -0.48944E+00 -0.60000E+00  0.19377E+01
  0.31056E+00 -0.31056E+00 -0.10000E+01  0.20023E+01
  0.31056E+00 -0.31056E+00 -0.88944E+00  0.19681E+01
  0.31056E+00 -0.31056E+00 -0.71056E+00  0.19225E+01
  0.31056E+00 -0.31056E+00 -0.60000E+00  0.19056E+01
  0.31056E+00 -0.20000E+00 -0.10000E+01  0.19681E+01
  0.31056E+00 -0.20000E+00 -0.88944E+00  0.19377E+01
  0.31056E+00 -0.20000E+00 -0.71056E+00  0.19056E+01
  0.31056E+00 -0.20000E+00 -0.60000E+00  0.19000E+01
  0.48944E+00 -0.60000E+00 -0.10000E+01  0.20362E+01
  0.48944E+00 -0.60000E+00 -0.88944E+00  0.20023E+01
  0.48944E+00 -0.60000E+00 -0.71056E+00  0.19487E+01
  0.48944E+00 -0.60000E+00 -0.60000E+00  0.19225E+01
  0.48944E+00 -0.48944E+00 -0.10000E+01  0.20023E+01
  0.48944E+00 -0.48944E+00 -0.88944E+00  0.19681E+01
  0.48944E+00 -0.48944E+00 -0.71056E+00  0.19225E+01
  0.48944E+00 -0.48944E+00 -0.60000E+00  0.19056E+01
  0.48944E+00 -0.31056E+00 -0.10000E+01  0.19487E+01
  0.48944E+00 -0.31056E+00 -0.88944E+00  0.19225E+01