 TITLE = "varsolution.tec"
 VARIABLES = "x","y","z","var"
 ZONE I =           4 ,J=           4 ,K=           4 ,F=POINT
 -0.10000E+01 -0.10000E+01 -0.10000E+01  0.20069E+01
 -0.10000E+01 -0.10000E+01 -0.81574E+00  0.19511E+01
 -0.10000E+01 -0.10000E+01 -0.51760E+00  0.19012E+01
 -0.10000E+01 -0.10000E+01 -0.33333E+00  0.19103E+01
 -0.10000E+01 -0.81574E+00 -0.10000E+01  0.19511E+01
 -0.10000E+01 -0.81574E+00 -0.81574E+00  0.19112E+01
 -0.10000E+01 -0.81574E+00 -0.51760E+00  0.19105E+01
 -0.10000E+01 -0.81574E+00 -0.33333E+00  0.19490E+01
 -0.10000E+01 -0.51760E+00 -0.10000E+01  0.19012E+01
 -0.10000E+01 -0.51760E+00 -0.81574E+00  0.19105E+01
 -0.10000E+01 -0.51760E+00 -0.51760E+00  0.19827E+01
 -0.10000E+01 -0.51760E+00 -0.33333E+00  0.20391E+01
 -0.10000E+01 -0.33333E+00 -0.10000E+01  0.19103E+01
 -0.10000E+01 -0.33333E+00 -0.81574E+00  0.19490E+01
 -0.10000E+01 -0.33333E+00 -0.51760E+00  0.20391E+01
 -0.10000E+01 -0.33333E+00 -0.33333E+00  0.20831E+01
 -0.81574E+00 -0.10000E+01 -0.10000E+01  0.19511E+01
 -0.81574E+00 -0.10000E+01 -0.81574E+00  0.19112E+01
 -0.81574E+00 -0.10000E+01 -0.51760E+00  0.19105E+01
 -0.81574E+00 -0.10000E+01 -0.33333E+00  0.19490E+01
 -0.81574E+00 -0.81574E+00 -0.10000E+01  0.19112E+01
 -0.81574E+00 -0.81574E+00 -0.81574E+00  0.19002E+01
 -0.81574E+00 -0.81574E+00 -0.51760E+00  0.19494E+01
 -0.81574E+00 -0.81574E+00 -0.33333E+00  0.20047E+01
 -0.81574E+00 -0.51760E+00 -0.10000E+01  0.19105E+01
 -0.81574E+00 -0.51760E+00 -0.81574E+00  0.19494E+01
 -0.81574E+00 -0.51760E+00 -0.51760E+00  0.20395E+01
 -0.81574E+00 -0.51760E+00 -0.33333E+00  0.20834E+01
 -0.81574E+00 -0.33333E+00 -0.10000E+01  0.19490E+01
 -0.81574E+00 -0.33333E+00 -0.81574E+00  0.20047E+01
 -0.81574E+00 -0.33333E+00 -0.51760E+00  0.20834E+01
 -0.81574E+00 -0.33333E+00 -0.33333E+00  0.21003E+01
 -0.51760E+00 -0.10000E+01 -0.10000E+01  0.19012E+01
 -0.51760E+00 -0.10000E+01 -0.81574E+00  0.19105E+01
 -0.51760E+00 -0.10000E+01 -0.51760E+00  0.19827E+01
 -0.51760E+00 -0.10000E+01 -0.33333E+00  0.20391E+01
 -0.51760E+00 -0.81574E+00 -0.10000E+01  0.19105E+01
 -0.51760E+00 -0.81574E+00 -0.81574E+00  0.19494E+01
 -0.51760E+00 -0.81574E+00 -0.51760E+00  0.20395E+01
 -0.51760E+00 -0.81574E+00 -0.33333E+00  0.20834E+01
 -0.51760E+00 -0.51760E+00 -0.10000E+01  0.19827E+01
 -0.51760E+00 -0.51760E+00 -0.81574E+00  0.20395E+01
 -0.51760E+00 -0.51760E+00 -0.51760E+00  0.20971E+01
 -0.51760E+00 -0.51760E+00 -0.33333E+00  0.20939E+01
 -0.51760E+00 -0.33333E+00 -0.10000E+01  0.20391E+01
 -0.51760E+00 -0.33333E+00 -0.81574E+00  0.20834E+01
 -0.51760E+00 -0.33333E+00 -0.51760E+00  0.20939E+01
 -0.51760E+00 -0.33333E+00 -0.33333E+00  0.20602E+01
 -0.33333E+00 -0.10000E+01 -0.10000E+01  0.19103E+01
 -0.33333E+00 -0.10000E+01 -0.81574E+00  0.19490E+01
 -0.33333E+00 -0.10000E+01 -0.51760E+00  0.20391E+01
 -0.33333E+00 -0.10000E+01 -0.33333E+00  0.20831E+01
 -0.33333E+00 -0.81574E+00 -0.10000E+01  0.19490E+01
 -0.33333E+00 -0.81574E+00 -0.81574E+00  0.20047E+01
 -0.33333E+00 -0.81574E+00 -0.51760E+00  0.20834E+01
 -0.33333E+00 -0.81574E+00 -0.33333E+00  0.21003E+01
 -0.33333E+00 -0.51760E+00 -0.10000E+01  0.20391E+01
 -0.33333E+00 -0.51760E+00 -0.81574E+00  0.20834E+01
 -0.33333E+00 -0.51760E+00 -0.51760E+00  0.20939E+01
 -0.33333E+00 -0.51760E+00 -0.33333E+00  0.20602E+01
 -0.33333E+00 -0.33333E+00 -0.10000E+01  0.20831E+01
 -0.33333E+00 -0.33333E+00 -0.81574E+00  0.21003E+01
 -0.33333E+00 -0.33333E+00 -0.51760E+00  0.20602E+01
 -0.33333E+00 -0.33333E+00 -0.33333E+00  0.20068E+01
 ZONE I =           4 ,J=           4 ,K=           4 ,F=POINT
 -0.33333E+00 -0.10000E+01 -0.10000E+01  0.19106E+01
 -0.33333E+00 -0.10000E+01 -0.81574E+00  0.19491E+01
 -0.33333E+00 -0.10000E+01 -0.51760E+00  0.20389E+01
 -0.33333E+00 -0.10000E+01 -0.33333E+00  0.20828E+01
 -0.33333E+00 -0.81574E+00 -0.10000E+01  0.19491E+01
 -0.33333E+00 -0.81574E+00 -0.81574E+00  0.20046E+01
 -0.33333E+00 -0.81574E+00 -0.51760E+00  0.20831E+01
 -0.33333E+00 -0.81574E+00 -0.33333E+00  0.21000E+01
 -0.33333E+00 -0.51760E+00 -0.10000E+01  0.20389E+01
 -0.33333E+00 -0.51760E+00 -0.81574E+00  0.20831E+01
 -0.33333E+00 -0.51760E+00 -0.51760E+00  0.20936E+01
 -0.33333E+00 -0.51760E+00 -0.33333E+00  0.20600E+01
 -0.33333E+00 -0.33333E+00 -0.10000E+01  0.20828E+01
 -0.33333E+00 -0.33333E+00 -0.81574E+00  0.21000E+01
 -0.33333E+00 -0.33333E+00 -0.51760E+00  0.20600E+01
 -0.33333E+00 -0.33333E+00 -0.33333E+00  0.20068E+01
 -0.14907E+00 -0.10000E+01 -0.10000E+01  0.19491E+01
 -0.14907E+00 -0.10000E+01 -0.81574E+00  0.20046E+01
 -0.14907E+00 -0.10000E+01 -0.51760E+00  0.20831E+01
 -0.14907E+00 -0.10000E+01 -0.33333E+00  0.21000E+01
 -0.14907E+00 -0.81574E+00 -0.10000E+01  0.20046E+01
 -0.14907E+00 -0.81574E+00 -0.81574E+00  0.20589E+01
 -0.14907E+00 -0.81574E+00 -0.51760E+00  0.21001E+01
 -0.14907E+00 -0.81574E+00 -0.33333E+00  0.20844E+01
 -0.14907E+00 -0.51760E+00 -0.10000E+01  0.20831E+01
 -0.14907E+00 -0.51760E+00 -0.81574E+00  0.21001E+01
 -0.14907E+00 -0.51760E+00 -0.51760E+00  0.20597E+01
 -0.14907E+00 -0.51760E+00 -0.33333E+00  0.20064E+01
 -0.14907E+00 -0.33333E+00 -0.10000E+01  0.21000E+01
 -0.14907E+00 -0.33333E+00 -0.81574E+00  0.20844E+01
 -0.14907E+00 -0.33333E+00 -0.51760E+00  0.20064E+01
 -0.14907E+00 -0.33333E+00 -0.33333E+00  0.19507E+01
  0.14907E+00 -0.10000E+01 -0.10000E+01  0.20389E+01
  0.14907E+00 -0.10000E+01 -0.81574E+00  0.20831E+01
  0.14907E+00 -0.10000E+01 -0.51760E+00  0.20936E+01
  0.14907E+00 -0.10000E+01 -0.33333E+00  0.20600E+01
  0.14907E+00 -0.81574E+00 -0.10000E+01  0.20831E+01
  0.14907E+00 -0.81574E+00 -0.81574E+00  0.21001E+01
  0.14907E+00 -0.81574E+00 -0.51760E+00  0.20597E+01
  0.14907E+00 -0.81574E+00 -0.33333E+00  0.20064E+01
  0.14907E+00 -0.51760E+00 -0.10000E+01  0.20936E+01
  0.14907E+00 -0.51760E+00 -0.81574E+00  0.20597E+01
  0.14907E+00 -0.51760E+00 -0.51760E+00  0.19710E+01
  0.14907E+00 -0.51760E+00 -0.33333E+00  0.19234E+01
  0.14907E+00 -0.33333E+00 -0.10000E+01  0.20600E+01
  0.14907E+00 -0.33333E+00 -0.81574E+00  0.20064E+01
  0.14907E+00 -0.33333E+00 -0.51760E+00  0.19234E+01
  0.14907E+00 -0.33333E+00 -0.33333E+00  0.19006E+01
  0.33333E+00 -0.10000E+01 -0.10000E+01  0.20828E+01
  0.33333E+00 -0.10000E+01 -0.81574E+00  0.21000E+01
  0.33333E+00 -0.10000E+01 -0.51760E+00  0.20600E+01
  0.33333E+00 -0.10000E+01 -0.33333E+00  0.20068E+01
  0.33333E+00 -0.81574E+00 -0.10000E+01  0.21000E+01
  0.33333E+00 -0.81574E+00 -0.81574E+00  0.20844E+01
  0.33333E+00 -0.81574E+00 -0.51760E+00  0.20064E+01
  0.33333E+00 -0.81574E+00 -0.33333E+00  0.19507E+01
  0.33333E+00 -0.51760E+00 -0.10000E+01  0.20600E+01
  0.33333E+00 -0.51760E+00 -0.81574E+00  0.20064E+01
  0.33333E+00 -0.51760E+00 -0.51760E+00  0.19234E+01
  0.33333E+00 -0.51760E+00 -0.33333E+00  0.19006E+01
  0.33333E+00 -0.33333E+00 -0.10000E+01  0.20068E+01
  0.33333E+00 -0.33333E+00 -0.81574E+00  0.19507E+01
  0.33333E+00 -0.33333E+00 -0.51760E+00  0.19006E+01
  0.33333E+00 -0.33333E+00 -0.33333E+00  0.19098E+01
 ZONE I =           4 ,J=           4 ,K=           4 ,F=POINT
  0.33333E+00 -0.10000E+01 -0.10000E+01  0.20825E+01
  0.33333E+00 -0.10000E+01 -0.81574E+00  0.20997E+01
  0.33333E+00 -0.10000E+01 -0.51760E+00  0.20599E+01
  0.33333E+00 -0.10000E+01 -0.33333E+00  0.20068E+01
  0.33333E+00 -0.81574E+00 -0.10000E+01  0.20997E+01
  0.33333E+00 -0.81574E+00 -0.81574E+00  0.20842E+01
  0.33333E+00 -0.81574E+00 -0.51760E+00  0.20064E+01
  0.33333E+00 -0.81574E+00 -0.33333E+00  0.19509E+01
  0.33333E+00 -0.51760E+00 -0.10000E+01  0.20599E+01
  0.33333E+00 -0.51760E+00 -0.81574E+00  0.20064E+01
  0.33333E+00 -0.51760E+00 -0.51760E+00  0.19237E+01
  0.33333E+00 -0.51760E+00 -0.33333E+00  0.19009E+01
  0.33333E+00 -0.33333E+00 -0.10000E+01  0.20068E+01
  0.33333E+00 -0.33333E+00 -0.81574E+00  0.19509E+01
  0.33333E+00 -0.33333E+00 -0.51760E+00  0.19009E+01
  0.33333E+00 -0.33333E+00 -0.33333E+00  0.19101E+01
  0.51760E+00 -0.10000E+01 -0.10000E+01  0.20997E+01
  0.51760E+00 -0.10000E+01 -0.81574E+00  0.20842E+01
  0.51760E+00 -0.10000E+01 -0.51760E+00  0.20064E+01
  0.51760E+00 -0.10000E+01 -0.33333E+00  0.19509E+01
  0.51760E+00 -0.81574E+00 -0.10000E+01  0.20842E+01
  0.51760E+00 -0.81574E+00 -0.81574E+00  0.20409E+01
  0.51760E+00 -0.81574E+00 -0.51760E+00  0.19506E+01
  0.51760E+00 -0.81574E+00 -0.33333E+00  0.19109E+01
  0.51760E+00 -0.51760E+00 -0.10000E+01  0.20064E+01
  0.51760E+00 -0.51760E+00 -0.81574E+00  0.19506E+01
  0.51760E+00 -0.51760E+00 -0.51760E+00  0.19008E+01
  0.51760E+00 -0.51760E+00 -0.33333E+00  0.19103E+01
  0.51760E+00 -0.33333E+00 -0.10000E+01  0.19509E+01
  0.51760E+00 -0.33333E+00 -0.81574E+00  0.19109E+01
  0.51760E+00 -0.33333E+00 -0.51760E+00  0.19103E+01
  0.51760E+00 -0.33333E+00 -0.33333E+00  0.19489E+01
  0.81574E+00 -0.10000E+01 -0.10000E+01  0.20599E+01
  0.81574E+00 -0.10000E+01 -0.81574E+00  0.20064E+01
  0.81574E+00 -0.10000E+01 -0.51760E+00  0.19237E+01
  0.81574E+00 -0.10000E+01 -0.33333E+00  0.19009E+01
  0.81574E+00 -0.81574E+00 -0.10000E+01  0.20064E+01
  0.81574E+00 -0.81574E+00 -0.81574E+00  0.19506E+01
  0.81574E+00 -0.81574E+00 -0.51760E+00  0.19008E+01
  0.81574E+00 -0.81574E+00 -0.33333E+00  0.19103E+01
  0.81574E+00 -0.51760E+00 -0.10000E+01  0.19237E+01
  0.81574E+00 -0.51760E+00 -0.81574E+00  0.19008E+01
  0.81574E+00 -0.51760E+00 -0.51760E+00  0.19319E+01
  0.81574E+00 -0.51760E+00 -0.33333E+00  0.19827E+01
  0.81574E+00 -0.33333E+00 -0.10000E+01  0.19009E+01
  0.81574E+00 -0.33333E+00 -0.81574E+00  0.19103E+01
  0.81574E+00 -0.33333E+00 -0.51760E+00  0.19827E+01
  0.81574E+00 -0.33333E+00 -0.33333E+00  0.20393E+01
  0.10000E+01 -0.10000E+01 -0.10000E+01  0.20068E+01
  0.10000E+01 -0.10000E+01 -0.81574E+00  0.19509E+01
  0.10000E+01 -0.10000E+01 -0.51760E+00  0.19009E+01
  0.10000E+01 -0.10000E+01 -0.33333E+00  0.19101E+01
  0.10000E+01 -0.81574E+00 -0.10000E+01  0.19509E+01
  0.10000E+01 -0.81574E+00 -0.81574E+00  0.19109E+01
  0.10000E+01 -0.81574E+00 -0.51760E+00  0.19103E+01
  0.10000E+01 -0.81574E+00 -0.33333E+00  0.19489E+01
  0.10000E+01 -0.51760E+00 -0.10000E+01  0.19009E+01
  0.10000E+01 -0.51760E+00 -0.81574E+00  0.19103E+01
  0.10000E+01 -0.51760E+00 -0.51760E+00  0.19827E+01
  0.10000E+01 -0.51760E+00 -0.33333E+00  0.20393E+01
  0.10000E+01 -0.33333E+00 -0.10000E+01  0.19101E+01
  0.10000E+01 -0.33333E+00 -0.81574E+00  0.19489E+01
  0.10000E+01 -0.33333E+00 -0.51760E+00  0.20393E+01
  0.10000E+01 -0.33333E+00 -0.33333E+00  0.20834E+01
 ZONE I =           4 ,J=           4 ,K=           4 ,F=POINT
 -0.10000E+01 -0.33333E+00 -0.10000E+01  0.19106E+01
 -0.10000E+01 -0.33333E+00 -0.81574E+00  0.19491E+01
 -0.10000E+01 -0.33333E+00 -0.51760E+00  0.20389E+01
 -0.10000E+01 -0.33333E+00 -0.33333E+00  0.20828E+01
 -0.10000E+01 -0.14907E+00 -0.10000E+01  0.19491E+01
 -0.10000E+01 -0.14907E+00 -0.81574E+00  0.20046E+01
 -0.10000E+01 -0.14907E+00 -0.51760E+00  0.20831E+01
 -0.10000E+01 -0.14907E+00 -0.33333E+00  0.21000E+01
 -0.10000E+01  0.14907E+00 -0.10000E+01  0.20389E+01
 -0.10000E+01  0.14907E+00 -0.81574E+00  0.20831E+01
 -0.10000E+01  0.14907E+00 -0.51760E+00  0.20936E+01
 -0.10000E+01  0.14907E+00 -0.33333E+00  0.20600E+01
 -0.10000E+01  0.33333E+00 -0.10000E+01  0.20828E+01
 -0.10000E+01  0.33333E+00 -0.81574E+00  0.21000E+01
 -0.10000E+01  0.33333E+00 -0.51760E+00  0.20600E+01
 -0.10000E+01  0.33333E+00 -0.33333E+00  0.20068E+01
 -0.81574E+00 -0.33333E+00 -0.10000E+01  0.19491E+01
 -0.81574E+00 -0.33333E+00 -0.81574E+00  0.20046E+01
 -0.81574E+00 -0.33333E+00 -0.51760E+00  0.20831E+01
 -0.81574E+00 -0.33333E+00 -0.33333E+00  0.21000E+01
 -0.81574E+00 -0.14907E+00 -0.10000E+01  0.20046E+01
 -0.81574E+00 -0.14907E+00 -0.81574E+00  0.20589E+01
 -0.81574E+00 -0.14907E+00 -0.51760E+00  0.21001E+01
 -0.81574E+00 -0.14907E+00 -0.33333E+00  0.20844E+01
 -0.81574E+00  0.14907E+00 -0.10000E+01  0.20831E+01
 -0.81574E+00  0.14907E+00 -0.81574E+00  0.21001E+01
 -0.81574E+00  0.14907E+00 -0.51760E+00  0.20597E+01
 -0.81574E+00  0.14907E+00 -0.33333E+00  0.20064E+01
 -0.81574E+00  0.33333E+00 -0.10000E+01  0.21000E+01
 -0.81574E+00  0.33333E+00 -0.81574E+00  0.20844E+01
 -0.81574E+00  0.33333E+00 -0.51760E+00  0.20064E+01
 -0.81574E+00  0.33333E+00 -0.33333E+00  0.19507E+01
 -0.51760E+00 -0.33333E+00 -0.10000E+01  0.20389E+01
 -0.51760E+00 -0.33333E+00 -0.81574E+00  0.20831E+01
 -0.51760E+00 -0.33333E+00 -0.51760E+00  0.20936E+01
 -0.51760E+00 -0.33333E+00 -0.33333E+00  0.20600E+01
 -0.51760E+00 -0.14907E+00 -0.10000E+01  0.20831E+01
 -0.51760E+00 -0.14907E+00 -0.81574E+00  0.21001E+01
 -0.51760E+00 -0.14907E+00 -0.51760E+00  0.20597E+01
 -0.51760E+00 -0.14907E+00 -0.33333E+00  0.20064E+01
 -0.51760E+00  0.14907E+00 -0.10000E+01  0.20936E+01
 -0.51760E+00  0.14907E+00 -0.81574E+00  0.20597E+01
 -0.51760E+00  0.14907E+00 -0.51760E+00  0.19710E+01
 -0.51760E+00  0.14907E+00 -0.33333E+00  0.19234E+01
 -0.51760E+00  0.33333E+00 -0.10000E+01  0.20600E+01
 -0.51760E+00  0.33333E+00 -0.81574E+00  0.20064E+01
 -0.51760E+00  0.33333E+00 -0.51760E+00  0.19234E+01
 -0.51760E+00  0.33333E+00 -0.33333E+00  0.19006E+01
 -0.33333E+00 -0.33333E+00 -0.10000E+01  0.20828E+01
 -0.33333E+00 -0.33333E+00 -0.81574E+00  0.21000E+01
 -0.33333E+00 -0.33333E+00 -0.51760E+00  0.20600E+01
 -0.33333E+00 -0.33333E+00 -0.33333E+00  0.20068E+01
 -0.33333E+00 -0.14907E+00 -0.10000E+01  0.21000E+01
 -0.33333E+00 -0.14907E+00 -0.81574E+00  0.20844E+01
 -0.33333E+00 -0.14907E+00 -0.51760E+00  0.20064E+01
 -0.33333E+00 -0.14907E+00 -0.33333E+00  0.19507E+01
 -0.33333E+00  0.14907E+00 -0.10000E+01  0.20600E+01
 -0.33333E+00  0.14907E+00 -0.81574E+00  0.20064E+01
 -0.33333E+00  0.14907E+00 -0.51760E+00  0.19234E+01
 -0.33333E+00  0.14907E+00 -0.33333E+00  0.19006E+01
 -0.33333E+00  0.33333E+00 -0.10000E+01  0.20068E+01
 -0.33333E+00  0.33333E+00 -0.81574E+00  0.19507E+01
 -0.33333E+00  0.33333E+00 -0.51760E+00  0.19006E+01
 -0.33333E+00  0.33333E+00 -0.33333E+00  0.19098E+01
 ZONE I =           4 ,J=           4 ,K=           4 ,F=POINT
 -0.33333E+00 -0.33333E+00 -0.10000E+01  0.20825E+01
 -0.33333E+00 -0.33333E+00 -0.81574E+00  0.20997E+01
 -0.33333E+00 -0.33333E+00 -0.51760E+00  0.20599E+01
 -0.33333E+00 -0.33333E+00 -0.33333E+00  0.20068E+01
 -0.33333E+00 -0.14907E+00 -0.10000E+01  0.20997E+01
 -0.33333E+00 -0.14907E+00 -0.81574E+00  0.20842E+01
 -0.33333E+00 -0.14907E+00 -0.51760E+00  0.20064E+01
 -0.33333E+00 -0.14907E+00 -0.33333E+00  0.19509E+01
 -0.33333E+00  0.14907E+00 -0.10000E+01  0.20599E+01
 -0.33333E+00  0.14907E+00 -0.81574E+00  0.20064E+01
 -0.33333E+00  0.14907E+00 -0.51760E+00  0.19237E+01
 -0.33333E+00  0.14907E+00 -0.33333E+00  0.19009E+01
 -0.33333E+00  0.33333E+00 -0.10000E+01  0.20068E+01
 -0.33333E+00  0.33333E+00 -0.81574E+00  0.19509E+01
 -0.33333E+00  0.33333E+00 -0.51760E+00  0.19009E+01
 -0.33333E+00  0.33333E+00 -0.33333E+00  0.19101E+01
 -0.14907E+00 -0.33333E+00 -0.10000E+01  0.20997E+01
 -0.14907E+00 -0.33333E+00 -0.81574E+00  0.20842E+01
 -0.14907E+00 -0.33333E+00 -0.51760E+00  0.20064E+01
 -0.14907E+00 -0.33333E+00 -0.33333E+00  0.19509E+01
 -0.14907E+00 -0.14907E+00 -0.10000E+01  0.20842E+01
 -0.14907E+00 -0.14907E+00 -0.81574E+00  0.20409E+01
 -0.14907E+00 -0.14907E+00 -0.51760E+00  0.19506E+01
 -0.14907E+00 -0.14907E+00 -0.33333E+00  0.19109E+01
 -0.14907E+00  0.14907E+00 -0.10000E+01  0.20064E+01
 -0.14907E+00  0.14907E+00 -0.81574E+00  0.19506E+01
 -0.14907E+00  0.14907E+00 -0.51760E+00  0.19008E+01
 -0.14907E+00  0.14907E+00 -0.33333E+00  0.19103E+01
 -0.14907E+00  0.33333E+00 -0.10000E+01  0.19509E+01
 -0.14907E+00  0.33333E+00 -0.81574E+00  0.19109E+01
 -0.14907E+00  0.33333E+00 -0.51760E+00  0.19103E+01
 -0.14907E+00  0.33333E+00 -0.33333E+00  0.19489E+01
  0.14907E+00 -0.33333E+00 -0.10000E+01  0.20599E+01
  0.14907E+00 -0.33333E+00 -0.81574E+00  0.20064E+01
  0.14907E+00 -0.33333E+00 -0.51760E+00  0.19237E+01
  0.14907E+00 -0.33333E+00 -0.33333E+00  0.19009E+01
  0.14907E+00 -0.14907E+00 -0.10000E+01  0.20064E+01
  0.14907E+00 -0.14907E+00 -0.81574E+00  0.19506E+01
  0.14907E+00 -0.14907E+00 -0.51760E+00  0.19008E+01
  0.14907E+00 -0.14907E+00 -0.33333E+00  0.19103E+01
  0.14907E+00  0.14907E+00 -0.10000E+01  0.19237E+01
  0.14907E+00  0.14907E+00 -0.81574E+00  0.19008E+01
  0.14907E+00  0.14907E+00 -0.51760E+00  0.19319E+01
  0.14907E+00  0.14907E+00 -0.33333E+00  0.19827E+01
  0.14907E+00  0.33333E+00 -0.10000E+01  0.19009E+01
  0.14907E+00  0.33333E+00 -0.81574E+00  0.19103E+01
  0.14907E+00  0.33333E+00 -0.51760E+00  0.19827E+01
  0.14907E+00  0.33333E+00 -0.33333E+00  0.20393E+01
  0.33333E+00 -0.33333E+00 -0.10000E+01  0.20068E+01
  0.33333E+00 -0.33333E+00 -0.81574E+00  0.19509E+01
  0.33333E+00 -0.33333E+00 -0.51760E+00  0.19009E+01
  0.33333E+00 -0.33333E+00 -0.33333E+00  0.19101E+01
  0.33333E+00 -0.14907E+00 -0.10000E+01  0.19509E+01
  0.33333E+00 -0.14907E+00 -0.81574E+00  0.19109E+01
  0.33333E+00 -0.14907E+00 -0.51760E+00  0.19103E+01
  0.33333E+00 -0.14907E+00 -0.33333E+00  0.19489E+01
  0.33333E+00  0.14907E+00 -0.10000E+01  0.19009E+01
  0.33333E+00  0.14907E+00 -0.81574E+00  0.19103E+01
  0.33333E+00  0.14907E+00 -0.51760E+00  0.19827E+01
  0.33333E+00  0.14907E+00 -0.33333E+00  0.20393E+01
  0.33333E+00  0.33333E+00 -0.10000E+01  0.19101E+01
  0.33333E+00  0.33333E+00 -0.81574E+00  0.19489E+01
  0.33333E+00  0.33333E+00 -0.51760E+00  0.20393E+01
  0.33333E+00  0.33333E+00 -0.33333E+00  0.20834E+01
 ZONE I =           4 ,J=           4 ,K=           4 ,F=POINT
  0.33333E+00 -0.33333E+00 -0.10000E+01  0.20069E+01
  0.33333E+00 -0.33333E+00 -0.81574E+00  0.19511E+01
  0.33333E+00 -0.33333E+00 -0.51760E+00  0.19012E+01
  0.33333E+00 -0.33333E+00 -0.33333E+00  0.19103E+01
  0.33333E+00 -0.14907E+00 -0.10000E+01  0.19511E+01
  0.33333E+00 -0.14907E+00 -0.81574E+00  0.19112E+01
  0.33333E+00 -0.14907E+00 -0.51760E+00  0.19105E+01
  0.33333E+00 -0.14907E+00 -0.33333E+00  0.19490E+01
  0.33333E+00  0.14907E+00 -0.10000E+01  0.19012E+01
  0.33333E+00  0.14907E+00 -0.81574E+00  0.19105E+01
  0.33333E+00  0.14907E+00 -0.51760E+00  0.19827E+01
  0.33333E+00  0.14907E+00 -0.33333E+00  0.20391E+01
  0.33333E+00  0.33333E+00 -0.10000E+01  0.19103E+01
  0.33333E+00  0.33333E+00 -0.81574E+00  0.19490E+01
  0.33333E+00  0.33333E+00 -0.51760E+00  0.20391E+01
  0.33333E+00  0.33333E+00 -0.33333E+00  0.20831E+01
  0.51760E+00 -0.33333E+00 -0.10000E+01  0.19511E+01
  0.51760E+00 -0.33333E+00 -0.81574E+00  0.19112E+01
  0.51760E+00 -0.33333E+00 -0.51760E+00  0.19105E+01
  0.51760E+00 -0.33333E+00 -0.33333E+00  0.19490E+01
  0.51760E+00 -0.14907E+00 -0.10000E+01  0.19112E+01
  0.51760E+00 -0.14907E+00 -0.81574E+00  0.19002E+01
  0.51760E+00 -0.14907E+00 -0.51760E+00  0.19494E+01
  0.51760E+00 -0.14907E+00 -0.33333E+00  0.20047E+01
  0.51760E+00  0.14907E+00 -0.10000E+01  0.19105E+01
  0.51760E+00  0.14907E+00 -0.81574E+00  0.19494E+01
  0.51760E+00  0.14907E+00 -0.51760E+00  0.20395E+01
  0.51760E+00  0.14907E+00 -0.33333E+00  0.20834E+01
  0.51760E+00  0.33333E+00 -0.10000E+01  0.19490E+01
  0.51760E+00  0.33333E+00 -0.81574E+00  0.20047E+01
  0.51760E+00  0.33333E+00 -0.51760E+00  0.20834E+01
  0.51760E+00  0.33333E+00 -0.33333E+00  0.21003E+01
  0.81574E+00 -0.33333E+00 -0.10000E+01  0.19012E+01
  0.81574E+00 -0.33333E+00 -0.81574E+00  0.19105E+01
  0.81574E+00 -0.33333E+00 -0.51760E+00  0.19827E+01
  0.81574E+00 -0.33333E+00 -0.33333E+00  0.20391E+01
  0.81574E+00 -0.14907E+00 -0.10000E+01  0.19105E+01
  0.81574E+00 -0.14907E+00 -0.81574E+00  0.19494E+01
  0.81574E+00 -0.14907E+00 -0.51760E+00  0.20395E+01
  0.81574E+00 -0.14907E+00 -0.33333E+00  0.20834E+01
  0.81574E+00  0.14907E+00 -0.10000E+01  0.19827E+01
  0.81574E+00  0.14907E+00 -0.81574E+00  0.20395E+01
  0.81574E+00  0.14907E+00 -0.51760E+00  0.20971E+01
  0.81574E+00  0.14907E+00 -0.33333E+00  0.20939E+01
  0.81574E+00  0.33333E+00 -0.10000E+01  0.20391E+01
  0.81574E+00  0.33333E+00 -0.81574E+00  0.20834E+01
  0.81574E+00  0.33333E+00 -0.51760E+00  0.20939E+01
  0.81574E+00  0.33333E+00 -0.33333E+00  0.20602E+01
  0.10000E+01 -0.33333E+00 -0.10000E+01  0.19103E+01
  0.10000E+01 -0.33333E+00 -0.81574E+00  0.19490E+01
  0.10000E+01 -0.33333E+00 -0.51760E+00  0.20391E+01
  0.10000E+01 -0.33333E+00 -0.33333E+00  0.20831E+01
  0.10000E+01 -0.14907E+00 -0.10000E+01  0.19490E+01
  0.10000E+01 -0.14907E+00 -0.81574E+00  0.20047E+01
  0.10000E+01 -0.14907E+00 -0.51760E+00  0.20834E+01
  0.10000E+01 -0.14907E+00 -0.33333E+00  0.21003E+01
  0.10000E+01  0.14907E+00 -0.10000E+01  0.20391E+01
  0.10000E+01  0.14907E+00 -0.81574E+00  0.20834E+01
  0.10000E+01  0.14907E+00 -0.51760E+00  0.20939E+01
  0.10000E+01  0.14907E+00 -0.33333E+00  0.20602E+01
  0.10000E+01  0.33333E+00 -0.10000E+01  0.20831E+01
  0.10000E+01  0.33333E+00 -0.81574E+00  0.21003E+01
  0.10000E+01  0.33333E+00 -0.51760E+00  0.20602E+01
  0.10000E+01  0.33333E+00 -0.33333E+00  0.20068E+01
 ZONE I =           4 ,J=           4 ,K=           4 ,F=POINT
 -0.10000E+01  0.33333E+00 -0.10000E+01  0.20825E+01
 -0.10000E+01  0.33333E+00 -0.81574E+00  0.20997E+01
 -0.10000E+01  0.33333E+00 -0.51760E+00  0.20599E+01
 -0.10000E+01  0.33333E+00 -0.33333E+00  0.20068E+01
 -0.10000E+01  0.51760E+00 -0.10000E+01  0.20997E+01
 -0.10000E+01  0.51760E+00 -0.81574E+00  0.20842E+01
 -0.10000E+01  0.51760E+00 -0.51760E+00  0.20064E+01
 -0.10000E+01  0.51760E+00 -0.33333E+00  0.19509E+01
 -0.10000E+01  0.81574E+00 -0.10000E+01  0.20599E+01
 -0.10000E+01  0.81574E+00 -0.81574E+00  0.20064E+01
 -0.10000E+01  0.81574E+00 -0.51760E+00  0.19237E+01
 -0.10000E+01  0.81574E+00 -0.33333E+00  0.19009E+01
 -0.10000E+01  0.10000E+01 -0.10000E+01  0.20068E+01
 -0.10000E+01  0.10000E+01 -0.81574E+00  0.19509E+01
 -0.10000E+01  0.10000E+01 -0.51760E+00  0.19009E+01
 -0.10000E+01  0.10000E+01 -0.33333E+00  0.19101E+01
 -0.81574E+00  0.33333E+00 -0.10000E+01  0.20997E+01
 -0.81574E+00  0.33333E+00 -0.81574E+00  0.20842E+01
 -0.81574E+00  0.33333E+00 -0.51760E+00  0.20064E+01
 -0.81574E+00  0.33333E+00 -0.33333E+00  0.19509E+01
 -0.81574E+00  0.51760E+00 -0.10000E+01  0.20842E+01
 -0.81574E+00  0.51760E+00 -0.81574E+00  0.20409E+01
 -0.81574E+00  0.51760E+00 -0.51760E+00  0.19506E+01
 -0.81574E+00  0.51760E+00 -0.33333E+00  0.19109E+01
 -0.81574E+00  0.81574E+00 -0.10000E+01  0.20064E+01
 -0.81574E+00  0.81574E+00 -0.81574E+00  0.19506E+01
 -0.81574E+00  0.81574E+00 -0.51760E+00  0.19008E+01
 -0.81574E+00  0.81574E+00 -0.33333E+00  0.19103E+01
 -0.81574E+00  0.10000E+01 -0.10000E+01  0.19509E+01
 -0.81574E+00  0.10000E+01 -0.81574E+00  0.19109E+01
 -0.81574E+00  0.10000E+01 -0.51760E+00  0.19103E+01
 -0.81574E+00  0.10000E+01 -0.33333E+00  0.19489E+01
 -0.51760E+00  0.33333E+00 -0.10000E+01  0.20599E+01
 -0.51760E+00  0.33333E+00 -0.81574E+00  0.20064E+01
 -0.51760E+00  0.33333E+00 -0.51760E+00  0.19237E+01
 -0.51760E+00  0.33333E+00 -0.33333E+00  0.19009E+01
 -0.51760E+00  0.51760E+00 -0.10000E+01  0.20064E+01
 -0.51760E+00  0.51760E+00 -0.81574E+00  0.19506E+01
 -0.51760E+00  0.51760E+00 -0.51760E+00  0.19008E+01
 -0.51760E+00  0.51760E+00 -0.33333E+00  0.19103E+01
 -0.51760E+00  0.81574E+00 -0.10000E+01  0.19237E+01
 -0.51760E+00  0.81574E+00 -0.81574E+00  0.19008E+01
 -0.51760E+00  0.81574E+00 -0.51760E+00  0.19319E+01
 -0.51760E+00  0.81574E+00 -0.33333E+00  0.19827E+01
 -0.51760E+00  0.10000E+01 -0.10000E+01  0.19009E+01
 -0.51760E+00  0.10000E+01 -0.81574E+00  0.19103E+01
 -0.51760E+00  0.10000E+01 -0.51760E+00  0.19827E+01
 -0.51760E+00  0.10000E+01 -0.33333E+00  0.20393E+01
 -0.33333E+00  0.33333E+00 -0.10000E+01  0.20068E+01
 -0.33333E+00  0.33333E+00 -0.81574E+00  0.19509E+01
 -0.33333E+00  0.33333E+00 -0.51760E+00  0.19009E+01
 -0.33333E+00  0.33333E+00 -0.33333E+00  0.19101E+01
 -0.33333E+00  0.51760E+00 -0.10000E+01  0.19509E+01
 -0.33333E+00  0.51760E+00 -0.81574E+00  0.19109E+01
 -0.33333E+00  0.51760E+00 -0.51760E+00  0.19103E+01
 -0.33333E+00  0.51760E+00 -0.33333E+00  0.19489E+01
 -0.33333E+00  0.81574E+00 -0.10000E+01  0.19009E+01
 -0.33333E+00  0.81574E+00 -0.81574E+00  0.19103E+01
 -0.33333E+00  0.81574E+00 -0.51760E+00  0.19827E+01
 -0.33333E+00  0.81574E+00 -0.33333E+00  0.20393E+01
 -0.33333E+00  0.10000E+01 -0.10000E+01  0.19101E+01
 -0.33333E+00  0.10000E+01 -0.81574E+00  0.19489E+01
 -0.33333E+00  0.10000E+01 -0.51760E+00  0.20393E+01
 -0.33333E+00  0.10000E+01 -0.33333E+00  0.20834E+01
 ZONE I =           4 ,J=           4 ,K=           4 ,F=POINT
 -0.33333E+00  0.33333E+00 -0.10000E+01  0.20069E+01
 -0.33333E+00  0.33333E+00 -0.81574E+00  0.19511E+01
 -0.33333E+00  0.33333E+00 -0.51760E+00  0.19012E+01
 -0.33333E+00  0.33333E+00 -0.33333E+00  0.19103E+01
 -0.33333E+00  0.51760E+00 -0.10000E+01  0.19511E+01
 -0.33333E+00  0.51760E+00 -0.81574E+00  0.19112E+01
 -0.33333E+00  0.51760E+00 -0.51760E+00  0.19105E+01
 -0.33333E+00  0.51760E+00 -0.33333E+00  0.19490E+01
 -0.33333E+00  0.81574E+00 -0.10000E+01  0.19012E+01
 -0.33333E+00  0.81574E+00 -0.81574E+00  0.19105E+01
 -0.33333E+00  0.81574E+00 -0.51760E+00  0.19827E+01
 -0.33333E+00  0.81574E+00 -0.33333E+00  0.20391E+01
 -0.33333E+00  0.10000E+01 -0.10000E+01  0.19103E+01
 -0.33333E+00  0.10000E+01 -0.81574E+00  0.19490E+01
 -0.33333E+00  0.10000E+01 -0.51760E+00  0.20391E+01
 -0.33333E+00  0.10000E+01 -0.33333E+00  0.20831E+01
 -0.14907E+00  0.33333E+00 -0.10000E+01  0.19511E+01
 -0.14907E+00  0.33333E+00 -0.81574E+00  0.19112E+01
 -0.14907E+00  0.33333E+00 -0.51760E+00  0.19105E+01
 -0.14907E+00  0.33333E+00 -0.33333E+00  0.19490E+01
 -0.14907E+00  0.51760E+00 -0.10000E+01  0.19112E+01
 -0.14907E+00  0.51760E+00 -0.81574E+00  0.19002E+01
 -0.14907E+00  0.51760E+00 -0.51760E+00  0.19494E+01
 -0.14907E+00  0.51760E+00 -0.33333E+00  0.20047E+01
 -0.14907E+00  0.81574E+00 -0.10000E+01  0.19105E+01
 -0.14907E+00  0.81574E+00 -0.81574E+00  0.19494E+01
 -0.14907E+00  0.81574E+00 -0.51760E+00  0.20395E+01
 -0.14907E+00  0.81574E+00 -0.33333E+00  0.20834E+01
 -0.14907E+00  0.10000E+01 -0.10000E+01  0.19490E+01
 -0.14907E+00  0.10000E+01 -0.81574E+00  0.20047E+01
 -0.14907E+00  0.10000E+01 -0.51760E+00  0.20834E+01
 -0.14907E+00  0.10000E+01 -0.33333E+00  0.21003E+01
  0.14907E+00  0.33333E+00 -0.10000E+01  0.19012E+01
  0.14907E+00  0.33333E+00 -0.81574E+00  0.19105E+01
  0.14907E+00  0.33333E+00 -0.51760E+00  0.19827E+01
  0.14907E+00  0.33333E+00 -0.33333E+00  0.20391E+01
  0.14907E+00  0.51760E+00 -0.10000E+01  0.19105E+01
  0.14907E+00  0.51760E+00 -0.81574E+00  0.19494E+01
  0.14907E+00  0.51760E+00 -0.51760E+00  0.20395E+01
  0.14907E+00  0.51760E+00 -0.33333E+00  0.20834E+01
  0.14907E+00  0.81574E+00 -0.10000E+01  0.19827E+01
  0.14907E+00  0.81574E+00 -0.81574E+00  0.20395E+01
  0.14907E+00  0.81574E+00 -0.51760E+00  0.20971E+01
  0.14907E+00  0.81574E+00 -0.33333E+00  0.20939E+01
  0.14907E+00  0.10000E+01 -0.10000E+01  0.20391E+01
  0.14907E+00  0.10000E+01 -0.81574E+00  0.20834E+01
  0.14907E+00  0.10000E+01 -0.51760E+00  0.20939E+01
  0.14907E+00  0.10000E+01 -0.33333E+00  0.20602E+01
  0.33333E+00  0.33333E+00 -0.10000E+01  0.19103E+01
  0.33333E+00  0.33333E+00 -0.81574E+00  0.19490E+01
  0.33333E+00  0.33333E+00 -0.51760E+00  0.20391E+01
  0.33333E+00  0.33333E+00 -0.33333E+00  0.20831E+01
  0.33333E+00  0.51760E+00 -0.10000E+01  0.19490E+01
  0.33333E+00  0.51760E+00 -0.81574E+00  0.20047E+01
  0.33333E+00  0.51760E+00 -0.51760E+00  0.20834E+01
  0.33333E+00  0.51760E+00 -0.33333E+00  0.21003E+01
  0.33333E+00  0.81574E+00 -0.10000E+01  0.20391E+01
  0.33333E+00  0.81574E+00 -0.81574E+00  0.20834E+01
  0.33333E+00  0.81574E+00 -0.51760E+00  0.20939E+01
  0.33333E+00  0.81574E+00 -0.33333E+00  0.20602E+01
  0.33333E+00  0.10000E+01 -0.10000E+01  0.20831E+01
  0.33333E+00  0.10000E+01 -0.81574E+00  0.21003E+01
  0.33333E+00  0.10000E+01 -0.51760E+00  0.20602E+01
  0.33333E+00  0.10000E+01 -0.33333E+00  0.20068E+01
 ZONE I =           4 ,J=           4 ,K=           4 ,F=POINT
  0.33333E+00  0.33333E+00 -0.10000E+01  0.19106E+01
  0.33333E+00  0.33333E+00 -0.81574E+00  0.19491E+01
  0.33333E+00  0.33333E+00 -0.51760E+00  0.20389E+01
  0.33333E+00  0.33333E+00 -0.33333E+00  0.20828E+01
  0.33333E+00  0.51760E+00 -0.10000E+01  0.19491E+01
  0.33333E+00  0.51760E+00 -0.81574E+00  0.20046E+01
  0.33333E+00  0.51760E+00 -0.51760E+00  0.20831E+01
  0.33333E+00  0.51760E+00 -0.33333E+00  0.21000E+01
  0.33333E+00  0.81574E+00 -0.10000E+01  0.20389E+01
  0.33333E+00  0.81574E+00 -0.81574E+00  0.20831E+01
  0.33333E+00  0.81574E+00 -0.51760E+00  0.20936E+01
  0.33333E+00  0.81574E+00 -0.33333E+00  0.20600E+01
  0.33333E+00  0.10000E+01 -0.10000E+01  0.20828E+01
  0.33333E+00  0.10000E+01 -0.81574E+00  0.21000E+01
  0.33333E+00  0.10000E+01 -0.51760E+00  0.20600E+01
  0.33333E+00  0.10000E+01 -0.33333E+00  0.20068E+01
  0.51760E+00  0.33333E+00 -0.10000E+01  0.19491E+01
  0.51760E+00  0.33333E+00 -0.81574E+00  0.20046E+01
  0.51760E+00  0.33333E+00 -0.51760E+00  0.20831E+01
  0.51760E+00  0.33333E+00 -0.33333E+00  0.21000E+01
  0.51760E+00  0.51760E+00 -0.10000E+01  0.20046E+01
  0.51760E+00  0.51760E+00 -0.81574E+00  0.20589E+01
  0.51760E+00  0.51760E+00 -0.51760E+00  0.21001E+01
  0.51760E+00  0.51760E+00 -0.33333E+00  0.20844E+01
  0.51760E+00  0.81574E+00 -0.10000E+01  0.20831E+01
  0.51760E+00  0.81574E+00 -0.81574E+00  0.21001E+01
  0.51760E+00  0.81574E+00 -0.51760E+00  0.20597E+01
  0.51760E+00  0.81574E+00 -0.33333E+00  0.20064E+01
  0.51760E+00  0.10000E+01 -0.10000E+01  0.21000E+01
  0.51760E+00  0.10000E+01 -0.81574E+00  0.20844E+01
  0.51760E+00  0.10000E+01 -0.51760E+00  0.20064E+01
  0.51760E+00  0.10000E+01 -0.33333E+00  0.19507E+01
  0.81574E+00  0.33333E+00 -0.10000E+01  0.20389E+01
  0.81574E+00  0.33333E+00 -0.81574E+00  0.20831E+01
  0.81574E+00  0.33333E+00 -0.51760E+00  0.20936E+01
  0.81574E+00  0.33333E+00 -0.33333E+00  0.20600E+01
  0.81574E+00  0.51760E+00 -0.10000E+01  0.20831E+01
  0.81574E+00  0.51760E+00 -0.81574E+00  0.21001E+01
  0.81574E+00  0.51760E+00 -0.51760E+00  0.20597E+01
  0.81574E+00  0.51760E+00 -0.33333E+00  0.20064E+01
  0.81574E+00  0.81574E+00 -0.10000E+01  0.20936E+01
  0.81574E+00  0.81574E+00 -0.81574E+00  0.20597E+01