 TITLE = "varsolution.tec"
 VARIABLES = "x","y","z","var"
 ZONE I =           4 ,J=           4 ,K=           4 ,F=POINT
 -0.10000E+01 -0.10000E+01 -0.10000E+01  0.40100E+01
 -0.10000E+01 -0.10000E+01 -0.93090E+00  0.39240E+01
 -0.10000E+01 -0.10000E+01 -0.81910E+00  0.37959E+01
 -0.10000E+01 -0.10000E+01 -0.75000E+00  0.37291E+01
 -0.10000E+01 -0.93090E+00 -0.10000E+01  0.39240E+01
 -0.10000E+01 -0.93090E+00 -0.93090E+00  0.38424E+01
 -0.10000E+01 -0.93090E+00 -0.81910E+00  0.37290E+01
 -0.10000E+01 -0.93090E+00 -0.75000E+00  0.36752E+01
 -0.10000E+01 -0.81910E+00 -0.10000E+01  0.37959E+01
 -0.10000E+01 -0.81910E+00 -0.93090E+00  0.37290E+01
 -0.10000E+01 -0.81910E+00 -0.81910E+00  0.36495E+01
 -0.10000E+01 -0.81910E+00 -0.75000E+00  0.36211E+01
 -0.10000E+01 -0.75000E+00 -0.10000E+01  0.37291E+01
 -0.10000E+01 -0.75000E+00 -0.93090E+00  0.36752E+01
 -0.10000E+01 -0.75000E+00 -0.81910E+00  0.36211E+01
 -0.10000E+01 -0.75000E+00 -0.75000E+00  0.36101E+01
 -0.93090E+00 -0.10000E+01 -0.10000E+01  0.39240E+01
 -0.93090E+00 -0.10000E+01 -0.93090E+00  0.38424E+01
 -0.93090E+00 -0.10000E+01 -0.81910E+00  0.37290E+01
 -0.93090E+00 -0.10000E+01 -0.75000E+00  0.36752E+01
 -0.93090E+00 -0.93090E+00 -0.10000E+01  0.38424E+01
 -0.93090E+00 -0.93090E+00 -0.93090E+00  0.37689E+01
 -0.93090E+00 -0.93090E+00 -0.81910E+00  0.36752E+01
 -0.93090E+00 -0.93090E+00 -0.75000E+00  0.36366E+01
 -0.93090E+00 -0.81910E+00 -0.10000E+01  0.37290E+01
 -0.93090E+00 -0.81910E+00 -0.93090E+00  0.36752E+01
 -0.93090E+00 -0.81910E+00 -0.81910E+00  0.36211E+01
 -0.93090E+00 -0.81910E+00 -0.75000E+00  0.36101E+01
 -0.93090E+00 -0.75000E+00 -0.10000E+01  0.36752E+01
 -0.93090E+00 -0.75000E+00 -0.93090E+00  0.36366E+01
 -0.93090E+00 -0.75000E+00 -0.81910E+00  0.36101E+01
 -0.93090E+00 -0.75000E+00 -0.75000E+00  0.36170E+01
 -0.81910E+00 -0.10000E+01 -0.10000E+01  0.37959E+01
 -0.81910E+00 -0.10000E+01 -0.93090E+00  0.37290E+01
 -0.81910E+00 -0.10000E+01 -0.81910E+00  0.36495E+01
 -0.81910E+00 -0.10000E+01 -0.75000E+00  0.36211E+01
 -0.81910E+00 -0.93090E+00 -0.10000E+01  0.37290E+01
 -0.81910E+00 -0.93090E+00 -0.93090E+00  0.36752E+01
 -0.81910E+00 -0.93090E+00 -0.81910E+00  0.36211E+01
 -0.81910E+00 -0.93090E+00 -0.75000E+00  0.36101E+01
 -0.81910E+00 -0.81910E+00 -0.10000E+01  0.36495E+01
 -0.81910E+00 -0.81910E+00 -0.93090E+00  0.36211E+01
 -0.81910E+00 -0.81910E+00 -0.81910E+00  0.36123E+01
 -0.81910E+00 -0.81910E+00 -0.75000E+00  0.36301E+01
 -0.81910E+00 -0.75000E+00 -0.10000E+01  0.36211E+01
 -0.81910E+00 -0.75000E+00 -0.93090E+00  0.36101E+01
 -0.81910E+00 -0.75000E+00 -0.81910E+00  0.36301E+01
 -0.81910E+00 -0.75000E+00 -0.75000E+00  0.36649E+01
 -0.75000E+00 -0.10000E+01 -0.10000E+01  0.37291E+01
 -0.75000E+00 -0.10000E+01 -0.93090E+00  0.36752E+01
 -0.75000E+00 -0.10000E+01 -0.81910E+00  0.36211E+01
 -0.75000E+00 -0.10000E+01 -0.75000E+00  0.36101E+01
 -0.75000E+00 -0.93090E+00 -0.10000E+01  0.36752E+01
 -0.75000E+00 -0.93090E+00 -0.93090E+00  0.36366E+01
 -0.75000E+00 -0.93090E+00 -0.81910E+00  0.36101E+01
 -0.75000E+00 -0.93090E+00 -0.75000E+00  0.36170E+01
 -0.75000E+00 -0.81910E+00 -0.10000E+01  0.36211E+01
 -0.75000E+00 -0.81910E+00 -0.93090E+00  0.36101E+01
 -0.75000E+00 -0.81910E+00 -0.81910E+00  0.36301E+01
 -0.75000E+00 -0.81910E+00 -0.75000E+00  0.36649E+01
 -0.75000E+00 -0.75000E+00 -0.10000E+01  0.36101E+01
 -0.75000E+00 -0.75000E+00 -0.93090E+00  0.36170E+01
 -0.75000E+00 -0.75000E+00 -0.81910E+00  0.36649E+01
 -0.75000E+00 -0.75000E+00 -0.75000E+00  0.37154E+01
 ZONE I =           4 ,J=           4 ,K=           4 ,F=POINT
 -0.75000E+00 -0.10000E+01 -0.10000E+01  0.37291E+01
 -0.75000E+00 -0.10000E+01 -0.93090E+00  0.36752E+01
 -0.75000E+00 -0.10000E+01 -0.81910E+00  0.36211E+01
 -0.75000E+00 -0.10000E+01 -0.75000E+00  0.36101E+01
 -0.75000E+00 -0.93090E+00 -0.10000E+01  0.36752E+01
 -0.75000E+00 -0.93090E+00 -0.93090E+00  0.36366E+01
 -0.75000E+00 -0.93090E+00 -0.81910E+00  0.36101E+01
 -0.75000E+00 -0.93090E+00 -0.75000E+00  0.36170E+01
 -0.75000E+00 -0.81910E+00 -0.10000E+01  0.36211E+01
 -0.75000E+00 -0.81910E+00 -0.93090E+00  0.36101E+01
 -0.75000E+00 -0.81910E+00 -0.81910E+00  0.36301E+01
 -0.75000E+00 -0.81910E+00 -0.75000E+00  0.36650E+01
 -0.75000E+00 -0.75000E+00 -0.10000E+01  0.36101E+01
 -0.75000E+00 -0.75000E+00 -0.93090E+00  0.36170E+01
 -0.75000E+00 -0.75000E+00 -0.81910E+00  0.36650E+01
 -0.75000E+00 -0.75000E+00 -0.75000E+00  0.37154E+01
 -0.68090E+00 -0.10000E+01 -0.10000E+01  0.36752E+01
 -0.68090E+00 -0.10000E+01 -0.93090E+00  0.36366E+01
 -0.68090E+00 -0.10000E+01 -0.81910E+00  0.36101E+01
 -0.68090E+00 -0.10000E+01 -0.75000E+00  0.36170E+01
 -0.68090E+00 -0.93090E+00 -0.10000E+01  0.36366E+01
 -0.68090E+00 -0.93090E+00 -0.93090E+00  0.36148E+01
 -0.68090E+00 -0.93090E+00 -0.81910E+00  0.36170E+01
 -0.68090E+00 -0.93090E+00 -0.75000E+00  0.36414E+01
 -0.68090E+00 -0.81910E+00 -0.10000E+01  0.36101E+01
 -0.68090E+00 -0.81910E+00 -0.93090E+00  0.36170E+01
 -0.68090E+00 -0.81910E+00 -0.81910E+00  0.36650E+01
 -0.68090E+00 -0.81910E+00 -0.75000E+00  0.37154E+01
 -0.68090E+00 -0.75000E+00 -0.10000E+01  0.36170E+01
 -0.68090E+00 -0.75000E+00 -0.93090E+00  0.36414E+01
 -0.68090E+00 -0.75000E+00 -0.81910E+00  0.37154E+01
 -0.68090E+00 -0.75000E+00 -0.75000E+00  0.37795E+01
 -0.56910E+00 -0.10000E+01 -0.10000E+01  0.36211E+01
 -0.56910E+00 -0.10000E+01 -0.93090E+00  0.36101E+01
 -0.56910E+00 -0.10000E+01 -0.81910E+00  0.36301E+01
 -0.56910E+00 -0.10000E+01 -0.75000E+00  0.36650E+01
 -0.56910E+00 -0.93090E+00 -0.10000E+01  0.36101E+01
 -0.56910E+00 -0.93090E+00 -0.93090E+00  0.36170E+01
 -0.56910E+00 -0.93090E+00 -0.81910E+00  0.36650E+01
 -0.56910E+00 -0.93090E+00 -0.75000E+00  0.37154E+01
 -0.56910E+00 -0.81910E+00 -0.10000E+01  0.36301E+01
 -0.56910E+00 -0.81910E+00 -0.93090E+00  0.36650E+01
 -0.56910E+00 -0.81910E+00 -0.81910E+00  0.37536E+01
 -0.56910E+00 -0.81910E+00 -0.75000E+00  0.38247E+01
 -0.56910E+00 -0.75000E+00 -0.10000E+01  0.36650E+01
 -0.56910E+00 -0.75000E+00 -0.93090E+00  0.37154E+01
 -0.56910E+00 -0.75000E+00 -0.81910E+00  0.38247E+01
 -0.56910E+00 -0.75000E+00 -0.75000E+00  0.39047E+01
 -0.50000E+00 -0.10000E+01 -0.10000E+01  0.36101E+01
 -0.50000E+00 -0.10000E+01 -0.93090E+00  0.36170E+01
 -0.50000E+00 -0.10000E+01 -0.81910E+00  0.36650E+01
 -0.50000E+00 -0.10000E+01 -0.75000E+00  0.37154E+01
 -0.50000E+00 -0.93090E+00 -0.10000E+01  0.36170E+01
 -0.50000E+00 -0.93090E+00 -0.93090E+00  0.36414E+01
 -0.50000E+00 -0.93090E+00 -0.81910E+00  0.37154E+01
 -0.50000E+00 -0.93090E+00 -0.75000E+00  0.37795E+01
 -0.50000E+00 -0.81910E+00 -0.10000E+01  0.36650E+01
 -0.50000E+00 -0.81910E+00 -0.93090E+00  0.37154E+01
 -0.50000E+00 -0.81910E+00 -0.81910E+00  0.38247E+01
 -0.50000E+00 -0.81910E+00 -0.75000E+00  0.39047E+01
 -0.50000E+00 -0.75000E+00 -0.10000E+01  0.37154E+01
 -0.50000E+00 -0.75000E+00 -0.93090E+00  0.37795E+01
 -0.50000E+00 -0.75000E+00 -0.81910E+00  0.39047E+01
 -0.50000E+00 -0.75000E+00 -0.75000E+00  0.39900E+01
 ZONE I =           4 ,J=           4 ,K=           4 ,F=POINT
 -0.50000E+00 -0.10000E+01 -0.10000E+01  0.36102E+01
 -0.50000E+00 -0.10000E+01 -0.93090E+00  0.36170E+01
 -0.50000E+00 -0.10000E+01 -0.81910E+00  0.36650E+01
 -0.50000E+00 -0.10000E+01 -0.75000E+00  0.37155E+01
 -0.50000E+00 -0.93090E+00 -0.10000E+01  0.36170E+01
 -0.50000E+00 -0.93090E+00 -0.93090E+00  0.36415E+01
 -0.50000E+00 -0.93090E+00 -0.81910E+00  0.37155E+01
 -0.50000E+00 -0.93090E+00 -0.75000E+00  0.37795E+01
 -0.50000E+00 -0.81910E+00 -0.10000E+01  0.36650E+01
 -0.50000E+00 -0.81910E+00 -0.93090E+00  0.37155E+01
 -0.50000E+00 -0.81910E+00 -0.81910E+00  0.38248E+01
 -0.50000E+00 -0.81910E+00 -0.75000E+00  0.39047E+01
 -0.50000E+00 -0.75000E+00 -0.10000E+01  0.37155E+01
 -0.50000E+00 -0.75000E+00 -0.93090E+00  0.37795E+01
 -0.50000E+00 -0.75000E+00 -0.81910E+00  0.39047E+01
 -0.50000E+00 -0.75000E+00 -0.75000E+00  0.39900E+01
 -0.43090E+00 -0.10000E+01 -0.10000E+01  0.36170E+01
 -0.43090E+00 -0.10000E+01 -0.93090E+00  0.36415E+01
 -0.43090E+00 -0.10000E+01 -0.81910E+00  0.37155E+01
 -0.43090E+00 -0.10000E+01 -0.75000E+00  0.37795E+01
 -0.43090E+00 -0.93090E+00 -0.10000E+01  0.36415E+01
 -0.43090E+00 -0.93090E+00 -0.93090E+00  0.36825E+01
 -0.43090E+00 -0.93090E+00 -0.81910E+00  0.37795E+01
 -0.43090E+00 -0.93090E+00 -0.75000E+00  0.38544E+01
 -0.43090E+00 -0.81910E+00 -0.10000E+01  0.37155E+01
 -0.43090E+00 -0.81910E+00 -0.93090E+00  0.37795E+01
 -0.43090E+00 -0.81910E+00 -0.81910E+00  0.39047E+01
 -0.43090E+00 -0.81910E+00 -0.75000E+00  0.39901E+01
 -0.43090E+00 -0.75000E+00 -0.10000E+01  0.37795E+01
 -0.43090E+00 -0.75000E+00 -0.93090E+00  0.38544E+01
 -0.43090E+00 -0.75000E+00 -0.81910E+00  0.39901E+01
 -0.43090E+00 -0.75000E+00 -0.75000E+00  0.40768E+01
 -0.31910E+00 -0.10000E+01 -0.10000E+01  0.36650E+01
 -0.31910E+00 -0.10000E+01 -0.93090E+00  0.37155E+01
 -0.31910E+00 -0.10000E+01 -0.81910E+00  0.38248E+01
 -0.31910E+00 -0.10000E+01 -0.75000E+00  0.39047E+01
 -0.31910E+00 -0.93090E+00 -0.10000E+01  0.37155E+01
 -0.31910E+00 -0.93090E+00 -0.93090E+00  0.37795E+01
 -0.31910E+00 -0.93090E+00 -0.81910E+00  0.39047E+01
 -0.31910E+00 -0.93090E+00 -0.75000E+00  0.39901E+01
 -0.31910E+00 -0.81910E+00 -0.10000E+01  0.38248E+01
 -0.31910E+00 -0.81910E+00 -0.93090E+00  0.39047E+01
 -0.31910E+00 -0.81910E+00 -0.81910E+00  0.40438E+01
 -0.31910E+00 -0.81910E+00 -0.75000E+00  0.41293E+01
 -0.31910E+00 -0.75000E+00 -0.10000E+01  0.39047E+01
 -0.31910E+00 -0.75000E+00 -0.93090E+00  0.39901E+01
 -0.31910E+00 -0.75000E+00 -0.81910E+00  0.41293E+01
 -0.31910E+00 -0.75000E+00 -0.75000E+00  0.42095E+01
 -0.25000E+00 -0.10000E+01 -0.10000E+01  0.37155E+01
 -0.25000E+00 -0.10000E+01 -0.93090E+00  0.37795E+01
 -0.25000E+00 -0.10000E+01 -0.81910E+00  0.39047E+01
 -0.25000E+00 -0.10000E+01 -0.75000E+00  0.39900E+01
 -0.25000E+00 -0.93090E+00 -0.10000E+01  0.37795E+01
 -0.25000E+00 -0.93090E+00 -0.93090E+00  0.38544E+01
 -0.25000E+00 -0.93090E+00 -0.81910E+00  0.39901E+01
 -0.25000E+00 -0.93090E+00 -0.75000E+00  0.40768E+01
 -0.25000E+00 -0.81910E+00 -0.10000E+01  0.39047E+01
 -0.25000E+00 -0.81910E+00 -0.93090E+00  0.39901E+01
 -0.25000E+00 -0.81910E+00 -0.81910E+00  0.41293E+01
 -0.25000E+00 -0.81910E+00 -0.75000E+00  0.42095E+01
 -0.25000E+00 -0.75000E+00 -0.10000E+01  0.39900E+01
 -0.25000E+00 -0.75000E+00 -0.93090E+00  0.40768E+01
 -0.25000E+00 -0.75000E+00 -0.81910E+00  0.42095E+01
 -0.25000E+00 -0.75000E+00 -0.75000E+00  0.42805E+01
 ZONE I =           4 ,J=           4 ,K=           4 ,F=POINT
 -0.25000E+00 -0.10000E+01 -0.10000E+01  0.37155E+01
 -0.25000E+00 -0.10000E+01 -0.93090E+00  0.37795E+01
 -0.25000E+00 -0.10000E+01 -0.81910E+00  0.39047E+01
 -0.25000E+00 -0.10000E+01 -0.75000E+00  0.39900E+01
 -0.25000E+00 -0.93090E+00 -0.10000E+01  0.37795E+01
 -0.25000E+00 -0.93090E+00 -0.93090E+00  0.38544E+01
 -0.25000E+00 -0.93090E+00 -0.81910E+00  0.39901E+01
 -0.25000E+00 -0.93090E+00 -0.75000E+00  0.40768E+01
 -0.25000E+00 -0.81910E+00 -0.10000E+01  0.39047E+01
 -0.25000E+00 -0.81910E+00 -0.93090E+00  0.39901E+01
 -0.25000E+00 -0.81910E+00 -0.81910E+00  0.41293E+01
 -0.25000E+00 -0.81910E+00 -0.75000E+00  0.42095E+01
 -0.25000E+00 -0.75000E+00 -0.10000E+01  0.39900E+01
 -0.25000E+00 -0.75000E+00 -0.93090E+00  0.40768E+01
 -0.25000E+00 -0.75000E+00 -0.81910E+00  0.42095E+01
 -0.25000E+00 -0.75000E+00 -0.75000E+00  0.42805E+01
 -0.18090E+00 -0.10000E+01 -0.10000E+01  0.37795E+01
 -0.18090E+00 -0.10000E+01 -0.93090E+00  0.38544E+01
 -0.18090E+00 -0.10000E+01 -0.81910E+00  0.39901E+01
 -0.18090E+00 -0.10000E+01 -0.75000E+00  0.40768E+01
 -0.18090E+00 -0.93090E+00 -0.10000E+01  0.38544E+01
 -0.18090E+00 -0.93090E+00 -0.93090E+00  0.39369E+01
 -0.18090E+00 -0.93090E+00 -0.81910E+00  0.40768E+01
 -0.18090E+00 -0.93090E+00 -0.75000E+00  0.41608E+01
 -0.18090E+00 -0.81910E+00 -0.10000E+01  0.39901E+01
 -0.18090E+00 -0.81910E+00 -0.93090E+00  0.40768E+01
 -0.18090E+00 -0.81910E+00 -0.81910E+00  0.42095E+01
 -0.18090E+00 -0.81910E+00 -0.75000E+00  0.42805E+01
 -0.18090E+00 -0.75000E+00 -0.10000E+01  0.40768E+01
 -0.18090E+00 -0.75000E+00 -0.93090E+00  0.41608E+01
 -0.18090E+00 -0.75000E+00 -0.81910E+00  0.42805E+01
 -0.18090E+00 -0.75000E+00 -0.75000E+00  0.43386E+01
 -0.69098E-01 -0.10000E+01 -0.10000E+01  0.39047E+01
 -0.69098E-01 -0.10000E+01 -0.93090E+00  0.39901E+01
 -0.69098E-01 -0.10000E+01 -0.81910E+00  0.41293E+01
 -0.69098E-01 -0.10000E+01 -0.75000E+00  0.42095E+01
 -0.69098E-01 -0.93090E+00 -0.10000E+01  0.39901E+01
 -0.69098E-01 -0.93090E+00 -0.93090E+00  0.40768E+01
 -0.69098E-01 -0.93090E+00 -0.81910E+00  0.42095E+01
 -0.69098E-01 -0.93090E+00 -0.75000E+00  0.42805E+01
 -0.69098E-01 -0.81910E+00 -0.10000E+01  0.41293E+01
 -0.69098E-01 -0.81910E+00 -0.93090E+00  0.42095E+01
 -0.69098E-01 -0.81910E+00 -0.81910E+00  0.43181E+01
 -0.69098E-01 -0.81910E+00 -0.75000E+00  0.43666E+01
 -0.69098E-01 -0.75000E+00 -0.10000E+01  0.42095E+01
 -0.69098E-01 -0.75000E+00 -0.93090E+00  0.42805E+01
 -0.69098E-01 -0.75000E+00 -0.81910E+00  0.43666E+01
 -0.69098E-01 -0.75000E+00 -0.75000E+00  0.43978E+01
  0.00000E+00 -0.10000E+01 -0.10000E+01  0.39900E+01
  0.00000E+00 -0.10000E+01 -0.93090E+00  0.40768E+01
  0.00000E+00 -0.10000E+01 -0.81910E+00  0.42095E+01
  0.00000E+00 -0.10000E+01 -0.75000E+00  0.42805E+01
  0.00000E+00 -0.93090E+00 -0.10000E+01  0.40768E+01
  0.00000E+00 -0.93090E+00 -0.93090E+00  0.41608E+01
  0.00000E+00 -0.93090E+00 -0.81910E+00  0.42805E+01
  0.00000E+00 -0.93090E+00 -0.75000E+00  0.43386E+01
  0.00000E+00 -0.81910E+00 -0.10000E+01  0.42095E+01
  0.00000E+00 -0.81910E+00 -0.93090E+00  0.42805E+01
  0.00000E+00 -0.81910E+00 -0.81910E+00  0.43666E+01
  0.00000E+00 -0.81910E+00 -0.75000E+00  0.43978E+01
  0.00000E+00 -0.75000E+00 -0.10000E+01  0.42805E+01
  0.00000E+00 -0.75000E+00 -0.93090E+00  0.43386E+01
  0.00000E+00 -0.75000E+00 -0.81910E+00  0.43978E+01
  0.00000E+00 -0.75000E+00 -0.75000E+00  0.44099E+01
 ZONE I =           4 ,J=           4 ,K=           4 ,F=POINT
  0.00000E+00 -0.10000E+01 -0.10000E+01  0.39900E+01
  0.00000E+00 -0.10000E+01 -0.93090E+00  0.40768E+01
  0.00000E+00 -0.10000E+01 -0.81910E+00  0.42095E+01
  0.00000E+00 -0.10000E+01 -0.75000E+00  0.42804E+01
  0.00000E+00 -0.93090E+00 -0.10000E+01  0.40768E+01
  0.00000E+00 -0.93090E+00 -0.93090E+00  0.41608E+01
  0.00000E+00 -0.93090E+00 -0.81910E+00  0.42805E+01
  0.00000E+00 -0.93090E+00 -0.75000E+00  0.43385E+01
  0.00000E+00 -0.81910E+00 -0.10000E+01  0.42095E+01
  0.00000E+00 -0.81910E+00 -0.93090E+00  0.42805E+01
  0.00000E+00 -0.81910E+00 -0.81910E+00  0.43666E+01
  0.00000E+00 -0.81910E+00 -0.75000E+00  0.43978E+01
  0.00000E+00 -0.75000E+00 -0.10000E+01  0.42804E+01
  0.00000E+00 -0.75000E+00 -0.93090E+00  0.43385E+01
  0.00000E+00 -0.75000E+00 -0.81910E+00  0.43978E+01
  0.00000E+00 -0.75000E+00 -0.75000E+00  0.44099E+01
  0.69098E-01 -0.10000E+01 -0.10000E+01  0.40768E+01
  0.69098E-01 -0.10000E+01 -0.93090E+00  0.41608E+01
  0.69098E-01 -0.10000E+01 -0.81910E+00  0.42805E+01
  0.69098E-01 -0.10000E+01 -0.75000E+00  0.43385E+01
  0.69098E-01 -0.93090E+00 -0.10000E+01  0.41608E+01
  0.69098E-01 -0.93090E+00 -0.93090E+00  0.42379E+01
  0.69098E-01 -0.93090E+00 -0.81910E+00  0.43386E+01
  0.69098E-01 -0.93090E+00 -0.75000E+00  0.43807E+01
  0.69098E-01 -0.81910E+00 -0.10000E+01  0.42805E+01
  0.69098E-01 -0.81910E+00 -0.93090E+00  0.43386E+01
  0.69098E-01 -0.81910E+00 -0.81910E+00  0.43978E+01
  0.69098E-01 -0.81910E+00 -0.75000E+00  0.44099E+01
  0.69098E-01 -0.75000E+00 -0.10000E+01  0.43385E+01
  0.69098E-01 -0.75000E+00 -0.93090E+00  0.43807E+01
  0.69098E-01 -0.75000E+00 -0.81910E+00  0.44099E+01
  0.69098E-01 -0.75000E+00 -0.75000E+00  0.44023E+01
  0.18090E+00 -0.10000E+01 -0.10000E+01  0.42095E+01
  0.18090E+00 -0.10000E+01 -0.93090E+00  0.42805E+01
  0.18090E+00 -0.10000E+01 -0.81910E+00  0.43666E+01
  0.18090E+00 -0.10000E+01 -0.75000E+00  0.43978E+01
  0.18090E+00 -0.93090E+00 -0.10000E+01  0.42805E+01
  0.18090E+00 -0.93090E+00 -0.93090E+00  0.43386E+01
  0.18090E+00 -0.93090E+00 -0.81910E+00  0.43978E+01
  0.18090E+00 -0.93090E+00 -0.75000E+00  0.44099E+01
  0.18090E+00 -0.81910E+00 -0.10000E+01  0.43666E+01
  0.18090E+00 -0.81910E+00 -0.93090E+00  0.43978E+01
  0.18090E+00 -0.81910E+00 -0.81910E+00  0.44075E+01
  0.18090E+00 -0.81910E+00 -0.75000E+00  0.43879E+01
  0.18090E+00 -0.75000E+00 -0.10000E+01  0.43978E+01
  0.18090E+00 -0.75000E+00 -0.93090E+00  0.44099E+01
  0.18090E+00 -0.75000E+00 -0.81910E+00  0.43879E+01
  0.18090E+00 -0.75000E+00 -0.75000E+00  0.43497E+01
  0.25000E+00 -0.10000E+01 -0.10000E+01  0.42804E+01
  0.25000E+00 -0.10000E+01 -0.93090E+00  0.43385E+01
  0.25000E+00 -0.10000E+01 -0.81910E+00  0.43978E+01
  0.25000E+00 -0.10000E+01 -0.75000E+00  0.44099E+01
  0.25000E+00 -0.93090E+00 -0.10000E+01  0.43385E+01
  0.25000E+00 -0.93090E+00 -0.93090E+00  0.43807E+01
  0.25000E+00 -0.93090E+00 -0.81910E+00  0.44099E+01
  0.25000E+00 -0.93090E+00 -0.75000E+00  0.44023E+01
  0.25000E+00 -0.81910E+00 -0.10000E+01  0.43978E+01
  0.25000E+00 -0.81910E+00 -0.93090E+00  0.44099E+01
  0.25000E+00 -0.81910E+00 -0.81910E+00  0.43879E+01
  0.25000E+00 -0.81910E+00 -0.75000E+00  0.43497E+01
  0.25000E+00 -0.75000E+00 -0.10000E+01  0.44099E+01
  0.25000E+00 -0.75000E+00 -0.93090E+00  0.44023E+01
  0.25000E+00 -0.75000E+00 -0.81910E+00  0.43497E+01
  0.25000E+00 -0.75000E+00 -0.75000E+00  0.42951E+01
 ZONE I =           4 ,J=           4 ,K=           4 ,F=POINT
  0.25000E+00 -0.10000E+01 -0.10000E+01  0.42804E+01
  0.25000E+00 -0.10000E+01 -0.93090E+00  0.43385E+01
  0.25000E+00 -0.10000E+01 -0.81910E+00  0.43977E+01
  0.25000E+00 -0.10000E+01 -0.75000E+00  0.44098E+01
  0.25000E+00 -0.93090E+00 -0.10000E+01  0.43385E+01
  0.25000E+00 -0.93090E+00 -0.93090E+00  0.43807E+01
  0.25000E+00 -0.93090E+00 -0.81910E+00  0.44098E+01
  0.25000E+00 -0.93090E+00 -0.75000E+00  0.44023E+01
  0.25000E+00 -0.81910E+00 -0.10000E+01  0.43977E+01
  0.25000E+00 -0.81910E+00 -0.93090E+00  0.44098E+01
  0.25000E+00 -0.81910E+00 -0.81910E+00  0.43878E+01
  0.25000E+00 -0.81910E+00 -0.75000E+00  0.43497E+01
  0.25000E+00 -0.75000E+00 -0.10000E+01  0.44098E+01
  0.25000E+00 -0.75000E+00 -0.93090E+00  0.44023E+01
  0.25000E+00 -0.75000E+00 -0.81910E+00  0.43497E+01
  0.25000E+00 -0.75000E+00 -0.75000E+00  0.42951E+01
  0.31910E+00 -0.10000E+01 -0.10000E+01  0.43385E+01
  0.31910E+00 -0.10000E+01 -0.93090E+00  0.43807E+01
  0.31910E+00 -0.10000E+01 -0.81910E+00  0.44098E+01
  0.31910E+00 -0.10000E+01 -0.75000E+00  0.44023E+01
  0.31910E+00 -0.93090E+00 -0.10000E+01  0.43807E+01
  0.31910E+00 -0.93090E+00 -0.93090E+00  0.44047E+01
  0.31910E+00 -0.93090E+00 -0.81910E+00  0.44023E+01
  0.31910E+00 -0.93090E+00 -0.75000E+00  0.43754E+01
  0.31910E+00 -0.81910E+00 -0.10000E+01  0.44098E+01
  0.31910E+00 -0.81910E+00 -0.93090E+00  0.44023E+01
  0.31910E+00 -0.81910E+00 -0.81910E+00  0.43497E+01
  0.31910E+00 -0.81910E+00 -0.75000E+00  0.42951E+01
  0.31910E+00 -0.75000E+00 -0.10000E+01  0.44023E+01
  0.31910E+00 -0.75000E+00 -0.93090E+00  0.43754E+01
  0.31910E+00 -0.75000E+00 -0.81910E+00  0.42951E+01
  0.31910E+00 -0.75000E+00 -0.75000E+00  0.42268E+01
  0.43090E+00 -0.10000E+01 -0.10000E+01  0.43977E+01
  0.43090E+00 -0.10000E+01 -0.93090E+00  0.44098E+01
  0.43090E+00 -0.10000E+01 -0.81910E+00  0.43878E+01
  0.43090E+00 -0.10000E+01 -0.75000E+00  0.43497E+01
  0.43090E+00 -0.93090E+00 -0.10000E+01  0.44098E+01
  0.43090E+00 -0.93090E+00 -0.93090E+00  0.44023E+01
  0.43090E+00 -0.93090E+00 -0.81910E+00  0.43497E+01
  0.43090E+00 -0.93090E+00 -0.75000E+00  0.42951E+01
  0.43090E+00 -0.81910E+00 -0.10000E+01  0.43878E+01
  0.43090E+00 -0.81910E+00 -0.93090E+00  0.43497E+01
  0.43090E+00 -0.81910E+00 -0.81910E+00  0.42542E+01
  0.43090E+00 -0.81910E+00 -0.75000E+00  0.41792E+01
  0.43090E+00 -0.75000E+00 -0.10000E+01  0.43497E+01
  0.43090E+00 -0.75000E+00 -0.93090E+00  0.42951E+01
  0.43090E+00 -0.75000E+00 -0.81910E+00  0.41792E+01
  0.43090E+00 -0.75000E+00 -0.75000E+00  0.40964E+01
  0.50000E+00 -0.10000E+01 -0.10000E+01  0.44098E+01
  0.50000E+00 -0.10000E+01 -0.93090E+00  0.44023E+01
  0.50000E+00 -0.10000E+01 -0.81910E+00  0.43497E+01
  0.50000E+00 -0.10000E+01 -0.75000E+00  0.42951E+01
  0.50000E+00 -0.93090E+00 -0.10000E+01  0.44023E+01
  0.50000E+00 -0.93090E+00 -0.93090E+00  0.43754E+01
  0.50000E+00 -0.93090E+00 -0.81910E+00  0.42951E+01
  0.50000E+00 -0.93090E+00 -0.75000E+00  0.42268E+01
  0.50000E+00 -0.81910E+00 -0.10000E+01  0.43497E+01
  0.50000E+00 -0.81910E+00 -0.93090E+00  0.42951E+01
  0.50000E+00 -0.81910E+00 -0.81910E+00  0.41792E+01
  0.50000E+00 -0.81910E+00 -0.75000E+00  0.40964E+01
  0.50000E+00 -0.75000E+00 -0.10000E+01  0.42951E+01
  0.50000E+00 -0.75000E+00 -0.93090E+00  0.42268E+01
  0.50000E+00 -0.75000E+00 -0.81910E+00  0.40964E+01
  0.50000E+00 -0.75000E+00 -0.75000E+00  0.40100E+01
 ZONE I =           4 ,J=           4 ,K=           4 ,F=POINT
  0.50000E+00 -0.10000E+01 -0.10000E+01  0.44098E+01
  0.50000E+00 -0.10000E+01 -0.93090E+00  0.44022E+01
  0.50000E+00 -0.10000E+01 -0.81910E+00  0.43496E+01
  0.50000E+00 -0.10000E+01 -0.75000E+00  0.42950E+01
  0.50000E+00 -0.93090E+00 -0.10000E+01  0.44022E+01
  0.50000E+00 -0.93090E+00 -0.93090E+00  0.43754E+01
  0.50000E+00 -0.93090E+00 -0.81910E+00  0.42950E+01
  0.50000E+00 -0.93090E+00 -0.75000E+00  0.42267E+01
  0.50000E+00 -0.81910E+00 -0.10000E+01  0.43496E+01
  0.50000E+00 -0.81910E+00 -0.93090E+00  0.42950E+01
  0.50000E+00 -0.81910E+00 -0.81910E+00  0.41792E+01
  0.50000E+00 -0.81910E+00 -0.75000E+00  0.40964E+01
  0.50000E+00 -0.75000E+00 -0.10000E+01  0.42950E+01
  0.50000E+00 -0.75000E+00 -0.93090E+00  0.42267E+01
  0.50000E+00 -0.75000E+00 -0.81910E+00  0.40964E+01
  0.50000E+00 -0.75000E+00 -0.75000E+00  0.40100E+01
  0.56910E+00 -0.10000E+01 -0.10000E+01  0.44022E+01
  0.56910E+00 -0.10000E+01 -0.93090E+00  0.43754E+01
  0.56910E+00 -0.10000E+01 -0.81910E+00  0.42950E+01
  0.56910E+00 -0.10000E+01 -0.75000E+00  0.42267E+01
  0.56910E+00 -0.93090E+00 -0.10000E+01  0.43754E+01
  0.56910E+00 -0.93090E+00 -0.93090E+00  0.43307E+01
  0.56910E+00 -0.93090E+00 -0.81910E+00  0.42267E+01
  0.56910E+00 -0.93090E+00 -0.75000E+00  0.41483E+01
  0.56910E+00 -0.81910E+00 -0.10000E+01  0.42950E+01
  0.56910E+00 -0.81910E+00 -0.93090E+00  0.42267E+01
  0.56910E+00 -0.81910E+00 -0.81910E+00  0.40964E+01
  0.56910E+00 -0.81910E+00 -0.75000E+00  0.40100E+01
  0.56910E+00 -0.75000E+00 -0.10000E+01  0.42267E+01
  0.56910E+00 -0.75000E+00 -0.93090E+00  0.41483E+01
  0.56910E+00 -0.75000E+00 -0.81910E+00  0.40100E+01
  0.56910E+00 -0.75000E+00 -0.75000E+00  0.39239E+01
  0.68090E+00 -0.10000E+01 -0.10000E+01  0.43496E+01
  0.68090E+00 -0.10000E+01 -0.93090E+00  0.42950E+01
  0.68090E+00 -0.10000E+01 -0.81910E+00  0.41792E+01
  0.68090E+00 -0.10000E+01 -0.75000E+00  0.40964E+01
  0.68090E+00 -0.93090E+00 -0.10000E+01  0.42950E+01
  0.68090E+00 -0.93090E+00 -0.93090E+00  0.42267E+01
  0.68090E+00 -0.93090E+00 -0.81910E+00  0.40964E+01
  0.68090E+00 -0.93090E+00 -0.75000E+00  0.40100E+01
  0.68090E+00 -0.81910E+00 -0.10000E+01  0.41792E+01
  0.68090E+00 -0.81910E+00 -0.93090E+00  0.40964E+01
  0.68090E+00 -0.81910E+00 -0.81910E+00  0.39565E+01
  0.68090E+00 -0.81910E+00 -0.75000E+00  0.38728E+01
  0.68090E+00 -0.75000E+00 -0.10000E+01  0.40964E+01
  0.68090E+00 -0.75000E+00 -0.93090E+00  0.40100E+01
  0.68090E+00 -0.75000E+00 -0.81910E+00  0.38728E+01
  0.68090E+00 -0.75000E+00 -0.75000E+00  0.37958E+01
  0.75000E+00 -0.10000E+01 -0.10000E+01  0.42950E+01
  0.75000E+00 -0.10000E+01 -0.93090E+00  0.42267E+01
  0.75000E+00 -0.10000E+01 -0.81910E+00  0.40964E+01
  0.75000E+00 -0.10000E+01 -0.75000E+00  0.40100E+01
  0.75000E+00 -0.93090E+00 -0.10000E+01  0.42267E+01
  0.75000E+00 -0.93090E+00 -0.93090E+00  0.41483E+01
  0.75000E+00 -0.93090E+00 -0.81910E+00  0.40100E+01
  0.75000E+00 -0.93090E+00 -0.75000E+00  0.39239E+01
  0.75000E+00 -0.81910E+00 -0.10000E+01  0.40964E+01
  0.75000E+00 -0.81910E+00 -0.93090E+00  0.40100E+01
  0.75000E+00 -0.81910E+00 -0.81910E+00  0.38728E+01
  0.75000E+00 -0.81910E+00 -0.75000E+00  0.37958E+01
  0.75000E+00 -0.75000E+00 -0.10000E+01  0.40100E+01
  0.75000E+00 -0.75000E+00 -0.93090E+00  0.39239E+01
  0.75000E+00 -0.75000E+00 -0.81910E+00  0.37958E+01
  0.75000E+00 -0.75000E+00 -0.75000E+00  0.37290E+01
 ZONE I =           4 ,J=           4 ,K=           4 ,F=POINT
  0.75000E+00 -0.10000E+01 -0.10000E+01  0.42950E+01
  0.75000E+00 -0.10000E+01 -0.93090E+00  0.42267E+01
  0.75000E+00 -0.10000E+01 -0.81910E+00  0.40964E+01
  0.75000E+00 -0.10000E+01 -0.75000E+00  0.40100E+01
  0.75000E+00 -0.93090E+00 -0.10000E+01  0.42267E+01
  0.75000E+00 -0.93090E+00 -0.93090E+00  0.41483E+01
  0.75000E+00 -0.93090E+00 -0.81910E+00  0.40100E+01
  0.75000E+00 -0.93090E+00 -0.75000E+00  0.39240E+01
  0.75000E+00 -0.81910E+00 -0.10000E+01  0.40964E+01
  0.75000E+00 -0.81910E+00 -0.93090E+00  0.40100E+01
  0.75000E+00 -0.81910E+00 -0.81910E+00  0.38728E+01
  0.75000E+00 -0.81910E+00 -0.75000E+00  0.37959E+01
  0.75000E+00 -0.75000E+00 -0.10000E+01  0.40100E+01
  0.75000E+00 -0.75000E+00 -0.93090E+00  0.39240E+01
  0.75000E+00 -0.75000E+00 -0.81910E+00  0.37959E+01
  0.75000E+00 -0.75000E+00 -0.75000E+00  0.37290E+01
  0.81910E+00 -0.10000E+01 -0.10000E+01  0.42267E+01
  0.81910E+00 -0.10000E+01 -0.93090E+00  0.41483E+01
  0.81910E+00 -0.10000E+01 -0.81910E+00  0.40100E+01
  0.81910E+00 -0.10000E+01 -0.75000E+00  0.39240E+01
  0.81910E+00 -0.93090E+00 -0.10000E+01  0.41483E+01
  0.81910E+00 -0.93090E+00 -0.93090E+00  0.40636E+01
  0.81910E+00 -0.93090E+00 -0.81910E+00  0.39239E+01
  0.81910E+00 -0.93090E+00 -0.75000E+00  0.38424E+01
  0.81910E+00 -0.81910E+00 -0.10000E+01  0.40100E+01
  0.81910E+00 -0.81910E+00 -0.93090E+00  0.39239E+01
  0.81910E+00 -0.81910E+00 -0.81910E+00  0.37958E+01
  0.81910E+00 -0.81910E+00 -0.75000E+00  0.37290E+01
  0.81910E+00 -0.75000E+00 -0.10000E+01  0.39240E+01
  0.81910E+00 -0.75000E+00 -0.93090E+00  0.38424E+01
  0.81910E+00 -0.75000E+00 -0.81910E+00  0.37290E+01
  0.81910E+00 -0.75000E+00 -0.75000E+00  0.36752E+01
  0.93090E+00 -0.10000E+01 -0.10000E+01  0.40964E+01
  0.93090E+00 -0.10000E+01 -0.93090E+00  0.40100E+01
  0.93090E+00 -0.10000E+01 -0.81910E+00  0.38728E+01
  0.93090E+00 -0.10000E+01 -0.75000E+00  0.37959E+01
  0.93090E+00 -0.93090E+00 -0.10000E+01  0.40100E+01
  0.93090E+00 -0.93090E+00 -0.93090E+00  0.39239E+01
  0.93090E+00 -0.93090E+00 -0.81910E+00  0.37958E+01
  0.93090E+00 -0.93090E+00 -0.75000E+00  0.37290E+01
  0.93090E+00 -0.81910E+00 -0.10000E+01  0.38728E+01
  0.93090E+00 -0.81910E+00 -0.93090E+00  0.37958E+01
  0.93090E+00 -0.81910E+00 -0.81910E+00  0.36941E+01
  0.93090E+00 -0.81910E+00 -0.75000E+00  0.36494E+01
  0.93090E+00 -0.75000E+00 -0.10000E+01  0.37959E+01
  0.93090E+00 -0.75000E+00 -0.93090E+00  0.37290E+01
  0.93090E+00 -0.75000E+00 -0.81910E+00  0.36494E+01
  0.93090E+00 -0.75000E+00 -0.75000E+00  0.36211E+01
  0.10000E+01 -0.10000E+01 -0.10000E+01  0.40100E+01
  0.10000E+01 -0.10000E+01 -0.93090E+00  0.39240E+01
  0.10000E+01 -0.10000E+01 -0.81910E+00  0.37959E+01
  0.10000E+01 -0.10000E+01 -0.75000E+00  0.37290E+01
  0.10000E+01 -0.93090E+00 -0.10000E+01  0.39240E+01
  0.10000E+01 -0.93090E+00 -0.93090E+00  0.38424E+01
  0.10000E+01 -0.93090E+00 -0.81910E+00  0.37290E+01
  0.10000E+01 -0.93090E+00 -0.75000E+00  0.36752E+01
  0.10000E+01 -0.81910E+00 -0.10000E+01  0.37959E+01
  0.10000E+01 -0.81910E+00 -0.93090E+00  0.37290E+01
  0.10000E+01 -0.81910E+00 -0.81910E+00  0.36494E+01
  0.10000E+01 -0.81910E+00 -0.75000E+00  0.36211E+01
  0.10000E+01 -0.75000E+00 -0.10000E+01  0.37290E+01
  0.10000E+01 -0.75000E+00 -0.93090E+00  0.36752E+01
  0.10000E+01 -0.75000E+00 -0.81910E+00  0.36211E+01
  0.10000E+01 -0.75000E+00 -0.75000E+00  0.36101E+01
 ZONE I =           4 ,J=           4 ,K=           4 ,F=POINT
 -0.10000E+01 -0.75000E+00 -0.10000E+01  0.37291E+01
 -0.10000E+01 -0.75000E+00 -0.93090E+00  0.36752E+01
 -0.10000E+01 -0.75000E+00 -0.81910E+00  0.36211E+01
 -0.10000E+01 -0.75000E+00 -0.75000E+00  0.36101E+01
 -0.10000E+01 -0.68090E+00 -0.10000E+01  0.36752E+01
 -0.10000E+01 -0.68090E+00 -0.93090E+00  0.36366E+01
 -0.10000E+01 -0.68090E+00 -0.81910E+00  0.36101E+01
 -0.10000E+01 -0.68090E+00 -0.75000E+00  0.36170E+01
 -0.10000E+01 -0.56910E+00 -0.10000E+01  0.36211E+01
 -0.10000E+01 -0.56910E+00 -0.93090E+00  0.36101E+01
 -0.10000E+01 -0.56910E+00 -0.81910E+00  0.36301E+01
 -0.10000E+01 -0.56910E+00 -0.75000E+00  0.36650E+01
 -0.10000E+01 -0.50000E+00 -0.10000E+01  0.36101E+01
 -0.10000E+01 -0.50000E+00 -0.93090E+00  0.36170E+01
 -0.10000E+01 -0.50000E+00 -0.81910E+00  0.36650E+01
 -0.10000E+01 -0.50000E+00 -0.75000E+00  0.37154E+01
 -0.93090E+00 -0.75000E+00 -0.10000E+01  0.36752E+01
 -0.93090E+00 -0.75000E+00 -0.93090E+00  0.36366E+01
 -0.93090E+00 -0.75000E+00 -0.81910E+00  0.36101E+01
 -0.93090E+00 -0.75000E+00 -0.75000E+00  0.36170E+01
 -0.93090E+00 -0.68090E+00 -0.10000E+01  0.36366E+01
 -0.93090E+00 -0.68090E+00 -0.93090E+00  0.36148E+01
 -0.93090E+00 -0.68090E+00 -0.81910E+00  0.36170E+01
 -0.93090E+00 -0.68090E+00 -0.75000E+00  0.36414E+01
 -0.93090E+00 -0.56910E+00 -0.10000E+01  0.36101E+01
 -0.93090E+00 -0.56910E+00 -0.93090E+00  0.36170E+01
 -0.93090E+00 -0.56910E+00 -0.81910E+00  0.36650E+01
 -0.93090E+00 -0.56910E+00 -0.75000E+00  0.37154E+01
 -0.93090E+00 -0.50000E+00 -0.10000E+01  0.36170E+01
 -0.93090E+00 -0.50000E+00 -0.93090E+00  0.36414E+01
 -0.93090E+00 -0.50000E+00 -0.81910E+00  0.37154E+01
 -0.93090E+00 -0.50000E+00 -0.75000E+00  0.37795E+01
 -0.81910E+00 -0.75000E+00 -0.10000E+01  0.36211E+01
 -0.81910E+00 -0.75000E+00 -0.93090E+00  0.36101E+01
 -0.81910E+00 -0.75000E+00 -0.81910E+00  0.36301E+01
 -0.81910E+00 -0.75000E+00 -0.75000E+00  0.36650E+01
 -0.81910E+00 -0.68090E+00 -0.10000E+01  0.36101E+01
 -0.81910E+00 -0.68090E+00 -0.93090E+00  0.36170E+01
 -0.81910E+00 -0.68090E+00 -0.81910E+00  0.36650E+01
 -0.81910E+00 -0.68090E+00 -0.75000E+00  0.37154E+01
 -0.81910E+00 -0.56910E+00 -0.10000E+01  0.36301E+01
 -0.81910E+00 -0.56910E+00 -0.93090E+00  0.36650E+01