 TITLE = "varsolution.tec"
 VARIABLES = "x","y","z","var"
 ZONE I =           4 ,J=           4 ,K=           4 ,F=POINT
 -0.10000E+01 -0.10000E+01 -0.10000E+01  0.10000E+01
 -0.10000E+01 -0.10000E+01 -0.88944E+00  0.10000E+01
 -0.10000E+01 -0.10000E+01 -0.71056E+00  0.10000E+01
 -0.10000E+01 -0.10000E+01 -0.60000E+00  0.10000E+01
 -0.10000E+01 -0.88944E+00 -0.10000E+01  0.10000E+01
 -0.10000E+01 -0.88944E+00 -0.88944E+00  0.10000E+01
 -0.10000E+01 -0.88944E+00 -0.71056E+00  0.10000E+01
 -0.10000E+01 -0.88944E+00 -0.60000E+00  0.10000E+01
 -0.10000E+01 -0.71056E+00 -0.10000E+01  0.10000E+01
 -0.10000E+01 -0.71056E+00 -0.88944E+00  0.10000E+01
 -0.10000E+01 -0.71056E+00 -0.71056E+00  0.10000E+01
 -0.10000E+01 -0.71056E+00 -0.60000E+00  0.10000E+01
 -0.10000E+01 -0.60000E+00 -0.10000E+01  0.10000E+01
 -0.10000E+01 -0.60000E+00 -0.88944E+00  0.10000E+01
 -0.10000E+01 -0.60000E+00 -0.71056E+00  0.10000E+01
 -0.10000E+01 -0.60000E+00 -0.60000E+00  0.10000E+01
 -0.88944E+00 -0.10000E+01 -0.10000E+01  0.10000E+01
 -0.88944E+00 -0.10000E+01 -0.88944E+00  0.10000E+01
 -0.88944E+00 -0.10000E+01 -0.71056E+00  0.10000E+01
 -0.88944E+00 -0.10000E+01 -0.60000E+00  0.10000E+01
 -0.88944E+00 -0.88944E+00 -0.10000E+01  0.10000E+01
 -0.88944E+00 -0.88944E+00 -0.88944E+00  0.10000E+01
 -0.88944E+00 -0.88944E+00 -0.71056E+00  0.10000E+01
 -0.88944E+00 -0.88944E+00 -0.60000E+00  0.10000E+01
 -0.88944E+00 -0.71056E+00 -0.10000E+01  0.10000E+01
 -0.88944E+00 -0.71056E+00 -0.88944E+00  0.10000E+01
 -0.88944E+00 -0.71056E+00 -0.71056E+00  0.10000E+01
 -0.88944E+00 -0.71056E+00 -0.60000E+00  0.10000E+01
 -0.88944E+00 -0.60000E+00 -0.10000E+01  0.10000E+01
 -0.88944E+00 -0.60000E+00 -0.88944E+00  0.10000E+01
 -0.88944E+00 -0.60000E+00 -0.71056E+00  0.10000E+01
 -0.88944E+00 -0.60000E+00 -0.60000E+00  0.10000E+01
 -0.71056E+00 -0.10000E+01 -0.10000E+01  0.10000E+01
 -0.71056E+00 -0.10000E+01 -0.88944E+00  0.10000E+01
 -0.71056E+00 -0.10000E+01 -0.71056E+00  0.10000E+01
 -0.71056E+00 -0.10000E+01 -0.60000E+00  0.10000E+01
 -0.71056E+00 -0.88944E+00 -0.10000E+01  0.10000E+01
 -0.71056E+00 -0.88944E+00 -0.88944E+00  0.10000E+01
 -0.71056E+00 -0.88944E+00 -0.71056E+00  0.10000E+01
 -0.71056E+00 -0.88944E+00 -0.60000E+00  0.10000E+01
 -0.71056E+00 -0.71056E+00 -0.10000E+01  0.10000E+01
 -0.71056E+00 -0.71056E+00 -0.88944E+00  0.10000E+01
 -0.71056E+00 -0.71056E+00 -0.71056E+00  0.10000E+01
 -0.71056E+00 -0.71056E+00 -0.60000E+00  0.10000E+01
 -0.71056E+00 -0.60000E+00 -0.10000E+01  0.10000E+01
 -0.71056E+00 -0.60000E+00 -0.88944E+00  0.10000E+01
 -0.71056E+00 -0.60000E+00 -0.71056E+00  0.10000E+01
 -0.71056E+00 -0.60000E+00 -0.60000E+00  0.10000E+01
 -0.60000E+00 -0.10000E+01 -0.10000E+01  0.10000E+01
 -0.60000E+00 -0.10000E+01 -0.88944E+00  0.10000E+01
 -0.60000E+00 -0.10000E+01 -0.71056E+00  0.10000E+01
 -0.60000E+00 -0.10000E+01 -0.60000E+00  0.10000E+01
 -0.60000E+00 -0.88944E+00 -0.10000E+01  0.10000E+01
 -0.60000E+00 -0.88944E+00 -0.88944E+00  0.10000E+01
 -0.60000E+00 -0.88944E+00 -0.71056E+00  0.10000E+01
 -0.60000E+00 -0.88944E+00 -0.60000E+00  0.10000E+01
 -0.60000E+00 -0.71056E+00 -0.10000E+01  0.10000E+01
 -0.60000E+00 -0.71056E+00 -0.88944E+00  0.10000E+01
 -0.60000E+00 -0.71056E+00 -0.71056E+00  0.10000E+01
 -0.60000E+00 -0.71056E+00 -0.60000E+00  0.10000E+01
 -0.60000E+00 -0.60000E+00 -0.10000E+01  0.10000E+01
 -0.60000E+00 -0.60000E+00 -0.88944E+00  0.10000E+01
 -0.60000E+00 -0.60000E+00 -0.71056E+00  0.10000E+01
 -0.60000E+00 -0.60000E+00 -0.60000E+00  0.10000E+01
 ZONE I =           4 ,J=           4 ,K=           4 ,F=POINT
 -0.60000E+00 -0.10000E+01 -0.10000E+01  0.10000E+01
 -0.60000E+00 -0.10000E+01 -0.88944E+00  0.10000E+01
 -0.60000E+00 -0.10000E+01 -0.71056E+00  0.10000E+01
 -0.60000E+00 -0.10000E+01 -0.60000E+00  0.10000E+01
 -0.60000E+00 -0.88944E+00 -0.10000E+01  0.10000E+01
 -0.60000E+00 -0.88944E+00 -0.88944E+00  0.10000E+01
 -0.60000E+00 -0.88944E+00 -0.71056E+00  0.10000E+01
 -0.60000E+00 -0.88944E+00 -0.60000E+00  0.10000E+01
 -0.60000E+00 -0.71056E+00 -0.10000E+01  0.10000E+01
 -0.60000E+00 -0.71056E+00 -0.88944E+00  0.10000E+01
 -0.60000E+00 -0.71056E+00 -0.71056E+00  0.10000E+01
 -0.60000E+00 -0.71056E+00 -0.60000E+00  0.10000E+01
 -0.60000E+00 -0.60000E+00 -0.10000E+01  0.10000E+01
 -0.60000E+00 -0.60000E+00 -0.88944E+00  0.10000E+01
 -0.60000E+00 -0.60000E+00 -0.71056E+00  0.10000E+01
 -0.60000E+00 -0.60000E+00 -0.60000E+00  0.10000E+01
 -0.48944E+00 -0.10000E+01 -0.10000E+01  0.10000E+01
 -0.48944E+00 -0.10000E+01 -0.88944E+00  0.10000E+01
 -0.48944E+00 -0.10000E+01 -0.71056E+00  0.10000E+01
 -0.48944E+00 -0.10000E+01 -0.60000E+00  0.10000E+01
 -0.48944E+00 -0.88944E+00 -0.10000E+01  0.10000E+01
 -0.48944E+00 -0.88944E+00 -0.88944E+00  0.10000E+01
 -0.48944E+00 -0.88944E+00 -0.71056E+00  0.10000E+01
 -0.48944E+00 -0.88944E+00 -0.60000E+00  0.10000E+01
 -0.48944E+00 -0.71056E+00 -0.10000E+01  0.10000E+01
 -0.48944E+00 -0.71056E+00 -0.88944E+00  0.10000E+01
 -0.48944E+00 -0.71056E+00 -0.71056E+00  0.10000E+01
 -0.48944E+00 -0.71056E+00 -0.60000E+00  0.10000E+01
 -0.48944E+00 -0.60000E+00 -0.10000E+01  0.10000E+01
 -0.48944E+00 -0.60000E+00 -0.88944E+00  0.10000E+01
 -0.48944E+00 -0.60000E+00 -0.71056E+00  0.10000E+01
 -0.48944E+00 -0.60000E+00 -0.60000E+00  0.10000E+01
 -0.31056E+00 -0.10000E+01 -0.10000E+01  0.10000E+01
 -0.31056E+00 -0.10000E+01 -0.88944E+00  0.10000E+01
 -0.31056E+00 -0.10000E+01 -0.71056E+00  0.10000E+01
 -0.31056E+00 -0.10000E+01 -0.60000E+00  0.10000E+01
 -0.31056E+00 -0.88944E+00 -0.10000E+01  0.10000E+01
 -0.31056E+00 -0.88944E+00 -0.88944E+00  0.10000E+01
 -0.31056E+00 -0.88944E+00 -0.71056E+00  0.10000E+01
 -0.31056E+00 -0.88944E+00 -0.60000E+00  0.10000E+01
 -0.31056E+00 -0.71056E+00 -0.10000E+01  0.10000E+01
 -0.31056E+00 -0.71056E+00 -0.88944E+00  0.10000E+01
 -0.31056E+00 -0.71056E+00 -0.71056E+00  0.10000E+01
 -0.31056E+00 -0.71056E+00 -0.60000E+00  0.10000E+01
 -0.31056E+00 -0.60000E+00 -0.10000E+01  0.10000E+01
 -0.31056E+00 -0.60000E+00 -0.88944E+00  0.10000E+01
 -0.31056E+00 -0.60000E+00 -0.71056E+00  0.10000E+01
 -0.31056E+00 -0.60000E+00 -0.60000E+00  0.10000E+01
 -0.20000E+00 -0.10000E+01 -0.10000E+01  0.10000E+01
 -0.20000E+00 -0.10000E+01 -0.88944E+00  0.10000E+01
 -0.20000E+00 -0.10000E+01 -0.71056E+00  0.10000E+01
 -0.20000E+00 -0.10000E+01 -0.60000E+00  0.10000E+01
 -0.20000E+00 -0.88944E+00 -0.10000E+01  0.10000E+01
 -0.20000E+00 -0.88944E+00 -0.88944E+00  0.10000E+01
 -0.20000E+00 -0.88944E+00 -0.71056E+00  0.10000E+01
 -0.20000E+00 -0.88944E+00 -0.60000E+00  0.10000E+01
 -0.20000E+00 -0.71056E+00 -0.10000E+01  0.10000E+01
 -0.20000E+00 -0.71056E+00 -0.88944E+00  0.10000E+01
 -0.20000E+00 -0.71056E+00 -0.71056E+00  0.10000E+01
 -0.20000E+00 -0.71056E+00 -0.60000E+00  0.10000E+01
 -0.20000E+00 -0.60000E+00 -0.10000E+01  0.10000E+01
 -0.20000E+00 -0.60000E+00 -0.88944E+00  0.10000E+01
 -0.20000E+00 -0.60000E+00 -0.71056E+00  0.10000E+01
 -0.20000E+00 -0.60000E+00 -0.60000E+00  0.10000E+01
 ZONE I =           4 ,J=           4 ,K=           4 ,F=POINT
 -0.20000E+00 -0.10000E+01 -0.10000E+01  0.10000E+01
 -0.20000E+00 -0.10000E+01 -0.88944E+00  0.10000E+01
 -0.20000E+00 -0.10000E+01 -0.71056E+00  0.10000E+01
 -0.20000E+00 -0.10000E+01 -0.60000E+00  0.10000E+01
 -0.20000E+00 -0.88944E+00 -0.10000E+01  0.10000E+01
 -0.20000E+00 -0.88944E+00 -0.88944E+00  0.10000E+01
 -0.20000E+00 -0.88944E+00 -0.71056E+00  0.10000E+01
 -0.20000E+00 -0.88944E+00 -0.60000E+00  0.10000E+01
 -0.20000E+00 -0.71056E+00 -0.10000E+01  0.10000E+01
 -0.20000E+00 -0.71056E+00 -0.88944E+00  0.10000E+01
 -0.20000E+00 -0.71056E+00 -0.71056E+00  0.10000E+01
 -0.20000E+00 -0.71056E+00 -0.60000E+00  0.10000E+01
 -0.20000E+00 -0.60000E+00 -0.10000E+01  0.10000E+01
 -0.20000E+00 -0.60000E+00 -0.88944E+00  0.10000E+01
 -0.20000E+00 -0.60000E+00 -0.71056E+00  0.10000E+01
 -0.20000E+00 -0.60000E+00 -0.60000E+00  0.10000E+01
 -0.89443E-01 -0.10000E+01 -0.10000E+01  0.10000E+01
 -0.89443E-01 -0.10000E+01 -0.88944E+00  0.10000E+01
 -0.89443E-01 -0.10000E+01 -0.71056E+00  0.10000E+01
 -0.89443E-01 -0.10000E+01 -0.60000E+00  0.10000E+01
 -0.89443E-01 -0.88944E+00 -0.10000E+01  0.10000E+01
 -0.89443E-01 -0.88944E+00 -0.88944E+00  0.10000E+01
 -0.89443E-01 -0.88944E+00 -0.71056E+00  0.10000E+01
 -0.89443E-01 -0.88944E+00 -0.60000E+00  0.10000E+01
 -0.89443E-01 -0.71056E+00 -0.10000E+01  0.10000E+01
 -0.89443E-01 -0.71056E+00 -0.88944E+00  0.10000E+01
 -0.89443E-01 -0.71056E+00 -0.71056E+00  0.10000E+01
 -0.89443E-01 -0.71056E+00 -0.60000E+00  0.10000E+01
 -0.89443E-01 -0.60000E+00 -0.10000E+01  0.10000E+01
 -0.89443E-01 -0.60000E+00 -0.88944E+00  0.10000E+01
 -0.89443E-01 -0.60000E+00 -0.71056E+00  0.10000E+01
 -0.89443E-01 -0.60000E+00 -0.60000E+00  0.10000E+01
  0.89443E-01 -0.10000E+01 -0.10000E+01  0.10000E+01
  0.89443E-01 -0.10000E+01 -0.88944E+00  0.10000E+01
  0.89443E-01 -0.10000E+01 -0.71056E+00  0.10000E+01
  0.89443E-01 -0.10000E+01 -0.60000E+00  0.10000E+01
  0.89443E-01 -0.88944E+00 -0.10000E+01  0.10000E+01
  0.89443E-01 -0.88944E+00 -0.88944E+00  0.10000E+01
  0.89443E-01 -0.88944E+00 -0.71056E+00  0.10000E+01
  0.89443E-01 -0.88944E+00 -0.60000E+00  0.10000E+01
  0.89443E-01 -0.71056E+00 -0.10000E+01  0.10000E+01
  0.89443E-01 -0.71056E+00 -0.88944E+00  0.10000E+01
  0.89443E-01 -0.71056E+00 -0.71056E+00  0.10000E+01
  0.89443E-01 -0.71056E+00 -0.60000E+00  0.10000E+01
  0.89443E-01 -0.60000E+00 -0.10000E+01  0.10000E+01
  0.89443E-01 -0.60000E+00 -0.88944E+00  0.10000E+01
  0.89443E-01 -0.60000E+00 -0.71056E+00  0.10000E+01
  0.89443E-01 -0.60000E+00 -0.60000E+00  0.10000E+01
  0.20000E+00 -0.10000E+01 -0.10000E+01  0.10000E+01
  0.20000E+00 -0.10000E+01 -0.88944E+00  0.10000E+01
  0.20000E+00 -0.10000E+01 -0.71056E+00  0.10000E+01
  0.20000E+00 -0.10000E+01 -0.60000E+00  0.10000E+01
  0.20000E+00 -0.88944E+00 -0.10000E+01  0.10000E+01
  0.20000E+00 -0.88944E+00 -0.88944E+00  0.10000E+01
  0.20000E+00 -0.88944E+00 -0.71056E+00  0.10000E+01
  0.20000E+00 -0.88944E+00 -0.60000E+00  0.10000E+01
  0.20000E+00 -0.71056E+00 -0.10000E+01  0.10000E+01
  0.20000E+00 -0.71056E+00 -0.88944E+00  0.10000E+01
  0.20000E+00 -0.71056E+00 -0.71056E+00  0.10000E+01
  0.20000E+00 -0.71056E+00 -0.60000E+00  0.10000E+01
  0.20000E+00 -0.60000E+00 -0.10000E+01  0.10000E+01
  0.20000E+00 -0.60000E+00 -0.88944E+00  0.10000E+01
  0.20000E+00 -0.60000E+00 -0.71056E+00  0.10000E+01
  0.20000E+00 -0.60000E+00 -0.60000E+00  0.10000E+01
 ZONE I =           4 ,J=           4 ,K=           4 ,F=POINT
  0.20000E+00 -0.10000E+01 -0.10000E+01  0.10000E+01
  0.20000E+00 -0.10000E+01 -0.88944E+00  0.10000E+01
  0.20000E+00 -0.10000E+01 -0.71056E+00  0.10000E+01
  0.20000E+00 -0.10000E+01 -0.60000E+00  0.10000E+01
  0.20000E+00 -0.88944E+00 -0.10000E+01  0.10000E+01
  0.20000E+00 -0.88944E+00 -0.88944E+00  0.10000E+01
  0.20000E+00 -0.88944E+00 -0.71056E+00  0.10000E+01
  0.20000E+00 -0.88944E+00 -0.60000E+00  0.10000E+01
  0.20000E+00 -0.71056E+00 -0.10000E+01  0.10000E+01
  0.20000E+00 -0.71056E+00 -0.88944E+00  0.10000E+01
  0.20000E+00 -0.71056E+00 -0.71056E+00  0.10000E+01
  0.20000E+00 -0.71056E+00 -0.60000E+00  0.10000E+01
  0.20000E+00 -0.60000E+00 -0.10000E+01  0.10000E+01
  0.20000E+00 -0.60000E+00 -0.88944E+00  0.10000E+01
  0.20000E+00 -0.60000E+00 -0.71056E+00  0.10000E+01
  0.20000E+00 -0.60000E+00 -0.60000E+00  0.10000E+01
  0.31056E+00 -0.10000E+01 -0.10000E+01  0.10000E+01
  0.31056E+00 -0.10000E+01 -0.88944E+00  0.10000E+01
  0.31056E+00 -0.10000E+01 -0.71056E+00  0.10000E+01
  0.31056E+00 -0.10000E+01 -0.60000E+00  0.10000E+01
  0.31056E+00 -0.88944E+00 -0.10000E+01  0.10000E+01
  0.31056E+00 -0.88944E+00 -0.88944E+00  0.10000E+01
  0.31056E+00 -0.88944E+00 -0.71056E+00  0.10000E+01
  0.31056E+00 -0.88944E+00 -0.60000E+00  0.10000E+01
  0.31056E+00 -0.71056E+00 -0.10000E+01  0.10000E+01
  0.31056E+00 -0.71056E+00 -0.88944E+00  0.10000E+01
  0.31056E+00 -0.71056E+00 -0.71056E+00  0.10000E+01
  0.31056E+00 -0.71056E+00 -0.60000E+00  0.10000E+01
  0.31056E+00 -0.60000E+00 -0.10000E+01  0.10000E+01
  0.31056E+00 -0.60000E+00 -0.88944E+00  0.10000E+01
  0.31056E+00 -0.60000E+00 -0.71056E+00  0.10000E+01
  0.31056E+00 -0.60000E+00 -0.60000E+00  0.10000E+01
  0.48944E+00 -0.10000E+01 -0.10000E+01  0.10000E+01
  0.48944E+00 -0.10000E+01 -0.88944E+00  0.10000E+01
  0.48944E+00 -0.10000E+01 -0.71056E+00  0.10000E+01
  0.48944E+00 -0.10000E+01 -0.60000E+00  0.10000E+01
  0.48944E+00 -0.88944E+00 -0.10000E+01  0.10000E+01
  0.48944E+00 -0.88944E+00 -0.88944E+00  0.10000E+01
  0.48944E+00 -0.88944E+00 -0.71056E+00  0.10000E+01
  0.48944E+00 -0.88944E+00 -0.60000E+00  0.10000E+01
  0.48944E+00 -0.71056E+00 -0.10000E+01  0.10000E+01
  0.48944E+00 -0.71056E+00 -0.88944E+00  0.10000E+01
  0.48944E+00 -0.71056E+00 -0.71056E+00  0.10000E+01
  0.48944E+00 -0.71056E+00 -0.60000E+00  0.10000E+01
  0.48944E+00 -0.60000E+00 -0.10000E+01  0.10000E+01
  0.48944E+00 -0.60000E+00 -0.88944E+00  0.10000E+01
  0.48944E+00 -0.60000E+00 -0.71056E+00  0.10000E+01
  0.48944E+00 -0.60000E+00 -0.60000E+00  0.10000E+01
  0.60000E+00 -0.10000E+01 -0.10000E+01  0.10000E+01
  0.60000E+00 -0.10000E+01 -0.88944E+00  0.10000E+01
  0.60000E+00 -0.10000E+01 -0.71056E+00  0.10000E+01
  0.60000E+00 -0.10000E+01 -0.60000E+00  0.10000E+01
  0.60000E+00 -0.88944E+00 -0.10000E+01  0.10000E+01
  0.60000E+00 -0.88944E+00 -0.88944E+00  0.10000E+01
  0.60000E+00 -0.88944E+00 -0.71056E+00  0.10000E+01
  0.60000E+00 -0.88944E+00 -0.60000E+00  0.10000E+01
  0.60000E+00 -0.71056E+00 -0.10000E+01  0.10000E+01
  0.60000E+00 -0.71056E+00 -0.88944E+00  0.10000E+01
  0.60000E+00 -0.71056E+00 -0.71056E+00  0.10000E+01
  0.60000E+00 -0.71056E+00 -0.60000E+00  0.10000E+01
  0.60000E+00 -0.60000E+00 -0.10000E+01  0.10000E+01
  0.60000E+00 -0.60000E+00 -0.88944E+00  0.10000E+01
  0.60000E+00 -0.60000E+00 -0.71056E+00  0.10000E+01
  0.60000E+00 -0.60000E+00 -0.60000E+00  0.10000E+01
 ZONE I =           4 ,J=           4 ,K=           4 ,F=POINT
  0.60000E+00 -0.10000E+01 -0.10000E+01  0.10000E+01
  0.60000E+00 -0.10000E+01 -0.88944E+00  0.10000E+01
  0.60000E+00 -0.10000E+01 -0.71056E+00  0.10000E+01
  0.60000E+00 -0.10000E+01 -0.60000E+00  0.10000E+01
  0.60000E+00 -0.88944E+00 -0.10000E+01  0.10000E+01
  0.60000E+00 -0.88944E+00 -0.88944E+00  0.10000E+01
  0.60000E+00 -0.88944E+00 -0.71056E+00  0.10000E+01
  0.60000E+00 -0.88944E+00 -0.60000E+00  0.10000E+01
  0.60000E+00 -0.71056E+00 -0.10000E+01  0.10000E+01
  0.60000E+00 -0.71056E+00 -0.88944E+00  0.10000E+01
  0.60000E+00 -0.71056E+00 -0.71056E+00  0.10000E+01
  0.60000E+00 -0.71056E+00 -0.60000E+00  0.10000E+01
  0.60000E+00 -0.60000E+00 -0.10000E+01  0.10000E+01
  0.60000E+00 -0.60000E+00 -0.88944E+00  0.10000E+01
  0.60000E+00 -0.60000E+00 -0.71056E+00  0.10000E+01
  0.60000E+00 -0.60000E+00 -0.60000E+00  0.10000E+01
  0.71056E+00 -0.10000E+01 -0.10000E+01  0.10000E+01
  0.71056E+00 -0.10000E+01 -0.88944E+00  0.10000E+01
  0.71056E+00 -0.10000E+01 -0.71056E+00  0.10000E+01
  0.71056E+00 -0.10000E+01 -0.60000E+00  0.10000E+01
  0.71056E+00 -0.88944E+00 -0.10000E+01  0.10000E+01
  0.71056E+00 -0.88944E+00 -0.88944E+00  0.10000E+01
  0.71056E+00 -0.88944E+00 -0.71056E+00  0.10000E+01
  0.71056E+00 -0.88944E+00 -0.60000E+00  0.10000E+01
  0.71056E+00 -0.71056E+00 -0.10000E+01  0.10000E+01
  0.71056E+00 -0.71056E+00 -0.88944E+00  0.10000E+01
  0.71056E+00 -0.71056E+00 -0.71056E+00  0.10000E+01
  0.71056E+00 -0.71056E+00 -0.60000E+00  0.10000E+01
  0.71056E+00 -0.60000E+00 -0.10000E+01  0.10000E+01
  0.71056E+00 -0.60000E+00 -0.88944E+00  0.10000E+01
  0.71056E+00 -0.60000E+00 -0.71056E+00  0.10000E+01
  0.71056E+00 -0.60000E+00 -0.60000E+00  0.10000E+01
  0.88944E+00 -0.10000E+01 -0.10000E+01  0.10000E+01
  0.88944E+00 -0.10000E+01 -0.88944E+00  0.10000E+01
  0.88944E+00 -0.10000E+01 -0.71056E+00  0.10000E+01
  0.88944E+00 -0.10000E+01 -0.60000E+00  0.10000E+01
  0.88944E+00 -0.88944E+00 -0.10000E+01  0.10000E+01
  0.88944E+00 -0.88944E+00 -0.88944E+00  0.10000E+01
  0.88944E+00 -0.88944E+00 -0.71056E+00  0.10000E+01
  0.88944E+00 -0.88944E+00 -0.60000E+00  0.10000E+01
  0.88944E+00 -0.71056E+00 -0.10000E+01  0.10000E+01
  0.88944E+00 -0.71056E+00 -0.88944E+00  0.10000E+01
  0.88944E+00 -0.71056E+00 -0.71056E+00  0.10000E+01
  0.88944E+00 -0.71056E+00 -0.60000E+00  0.10000E+01
  0.88944E+00 -0.60000E+00 -0.10000E+01  0.10000E+01
  0.88944E+00 -0.60000E+00 -0.88944E+00  0.10000E+01
  0.88944E+00 -0.60000E+00 -0.71056E+00  0.10000E+01
  0.88944E+00 -0.60000E+00 -0.60000E+00  0.10000E+01
  0.10000E+01 -0.10000E+01 -0.10000E+01  0.10000E+01
  0.10000E+01 -0.10000E+01 -0.88944E+00  0.10000E+01
  0.10000E+01 -0.10000E+01 -0.71056E+00  0.10000E+01
  0.10000E+01 -0.10000E+01 -0.60000E+00  0.10000E+01
  0.10000E+01 -0.88944E+00 -0.10000E+01  0.10000E+01
  0.10000E+01 -0.88944E+00 -0.88944E+00  0.10000E+01
  0.10000E+01 -0.88944E+00 -0.71056E+00  0.10000E+01
  0.10000E+01 -0.88944E+00 -0.60000E+00  0.10000E+01
  0.10000E+01 -0.71056E+00 -0.10000E+01  0.10000E+01
  0.10000E+01 -0.71056E+00 -0.88944E+00  0.10000E+01
  0.10000E+01 -0.71056E+00 -0.71056E+00  0.10000E+01
  0.10000E+01 -0.71056E+00 -0.60000E+00  0.10000E+01
  0.10000E+01 -0.60000E+00 -0.10000E+01  0.10000E+01
  0.10000E+01 -0.60000E+00 -0.88944E+00  0.10000E+01
  0.10000E+01 -0.60000E+00 -0.71056E+00  0.10000E+01
  0.10000E+01 -0.60000E+00 -0.60000E+00  0.10000E+01
 ZONE I =           4 ,J=           4 ,K=           4 ,F=POINT
 -0.10000E+01 -0.60000E+00 -0.10000E+01  0.10000E+01
 -0.10000E+01 -0.60000E+00 -0.88944E+00  0.10000E+01
 -0.10000E+01 -0.60000E+00 -0.71056E+00  0.10000E+01
 -0.10000E+01 -0.60000E+00 -0.60000E+00  0.10000E+01
 -0.10000E+01 -0.48944E+00 -0.10000E+01  0.10000E+01
 -0.10000E+01 -0.48944E+00 -0.88944E+00  0.10000E+01
 -0.10000E+01 -0.48944E+00 -0.71056E+00  0.10000E+01
 -0.10000E+01 -0.48944E+00 -0.60000E+00  0.10000E+01
 -0.10000E+01 -0.31056E+00 -0.10000E+01  0.10000E+01
 -0.10000E+01 -0.31056E+00 -0.88944E+00  0.10000E+01
 -0.10000E+01 -0.31056E+00 -0.71056E+00  0.10000E+01
 -0.10000E+01 -0.31056E+00 -0.60000E+00  0.10000E+01
 -0.10000E+01 -0.20000E+00 -0.10000E+01  0.10000E+01
 -0.10000E+01 -0.20000E+00 -0.88944E+00  0.10000E+01
 -0.10000E+01 -0.20000E+00 -0.71056E+00  0.10000E+01
 -0.10000E+01 -0.20000E+00 -0.60000E+00  0.10000E+01
 -0.88944E+00 -0.60000E+00 -0.10000E+01  0.10000E+01
 -0.88944E+00 -0.60000E+00 -0.88944E+00  0.10000E+01
 -0.88944E+00 -0.60000E+00 -0.71056E+00  0.10000E+01
 -0.88944E+00 -0.60000E+00 -0.60000E+00  0.10000E+01
 -0.88944E+00 -0.48944E+00 -0.10000E+01  0.10000E+01
 -0.88944E+00 -0.48944E+00 -0.88944E+00  0.10000E+01
 -0.88944E+00 -0.48944E+00 -0.71056E+00  0.10000E+01
 -0.88944E+00 -0.48944E+00 -0.60000E+00  0.10000E+01
 -0.88944E+00 -0.31056E+00 -0.10000E+01  0.10000E+01
 -0.88944E+00 -0.31056E+00 -0.88944E+00  0.10000E+01
 -0.88944E+00 -0.31056E+00 -0.71056E+00  0.10000E+01
 -0.88944E+00 -0.31056E+00 -0.60000E+00  0.10000E+01
 -0.88944E+00 -0.20000E+00 -0.10000E+01  0.10000E+01
 -0.88944E+00 -0.20000E+00 -0.88944E+00  0.10000E+01
 -0.88944E+00 -0.20000E+00 -0.71056E+00  0.10000E+01
 -0.88944E+00 -0.20000E+00 -0.60000E+00  0.10000E+01
 -0.71056E+00 -0.60000E+00 -0.10000E+01  0.10000E+01
 -0.71056E+00 -0.60000E+00 -0.88944E+00  0.10000E+01
 -0.71056E+00 -0.60000E+00 -0.71056E+00  0.10000E+01
 -0.71056E+00 -0.60000E+00 -0.60000E+00  0.10000E+01
 -0.71056E+00 -0.48944E+00 -0.10000E+01  0.10000E+01
 -0.71056E+00 -0.48944E+00 -0.88944E+00  0.10000E+01
 -0.71056E+00 -0.48944E+00 -0.71056E+00  0.10000E+01
 -0.71056E+00 -0.48944E+00 -0.60000E+00  0.10000E+01
 -0.71056E+00 -0.31056E+00 -0.10000E+01  0.10000E+01
 -0.71056E+00 -0.31056E+00 -0.88944E+00  0.10000E+01
 -0.71056E+00 -0.31056E+00 -0.71056E+00  0.10000E+01
 -0.71056E+00 -0.31056E+00 -0.60000E+00  0.10000E+01
 -0.71056E+00 -0.20000E+00 -0.10000E+01  0.10000E+01
 -0.71056E+00 -0.20000E+00 -0.88944E+00  0.10000E+01
 -0.71056E+00 -0.20000E+00 -0.71056E+00  0.10000E+01
 -0.71056E+00 -0.20000E+00 -0.60000E+00  0.10000E+01
 -0.60000E+00 -0.60000E+00 -0.10000E+01  0.10000E+01
 -0.60000E+00 -0.60000E+00 -0.88944E+00  0.10000E+01
 -0.60000E+00 -0.60000E+00 -0.71056E+00  0.10000E+01
 -0.60000E+00 -0.60000E+00 -0.60000E+00  0.10000E+01
 -0.60000E+00 -0.48944E+00 -0.10000E+01  0.10000E+01
 -0.60000E+00 -0.48944E+00 -0.88944E+00  0.10000E+01
 -0.60000E+00 -0.48944E+00 -0.71056E+00  0.10000E+01
 -0.60000E+00 -0.48944E+00 -0.60000E+00  0.10000E+01
 -0.60000E+00 -0.31056E+00 -0.10000E+01  0.10000E+01
 -0.60000E+00 -0.31056E+00 -0.88944E+00  0.10000E+01
 -0.60000E+00 -0.31056E+00 -0.71056E+00  0.10000E+01
 -0.60000E+00 -0.31056E+00 -0.60000E+00  0.10000E+01
 -0.60000E+00 -0.20000E+00 -0.10000E+01  0.10000E+01
 -0.60000E+00 -0.20000E+00 -0.88944E+00  0.10000E+01
 -0.60000E+00 -0.20000E+00 -0.71056E+00  0.10000E+01
 -0.60000E+00 -0.20000E+00 -0.60000E+00  0.10000E+01
 ZONE I =           4 ,J=           4 ,K=           4 ,F=POINT
 -0.60000E+00 -0.60000E+00 -0.10000E+01  0.10000E+01
 -0.60000E+00 -0.60000E+00 -0.88944E+00  0.10000E+01
 -0.60000E+00 -0.60000E+00 -0.71056E+00  0.10000E+01
 -0.60000E+00 -0.60000E+00 -0.60000E+00  0.10000E+01
 -0.60000E+00 -0.48944E+00 -0.10000E+01  0.10000E+01
 -0.60000E+00 -0.48944E+00 -0.88944E+00  0.10000E+01
 -0.60000E+00 -0.48944E+00 -0.71056E+00  0.10000E+01
 -0.60000E+00 -0.48944E+00 -0.60000E+00  0.10000E+01
 -0.60000E+00 -0.31056E+00 -0.10000E+01  0.10000E+01
 -0.60000E+00 -0.31056E+00 -0.88944E+00  0.10000E+01
 -0.60000E+00 -0.31056E+00 -0.71056E+00  0.10000E+01
 -0.60000E+00 -0.31056E+00 -0.60000E+00  0.10000E+01
 -0.60000E+00 -0.20000E+00 -0.10000E+01  0.10000E+01
 -0.60000E+00 -0.20000E+00 -0.88944E+00  0.10000E+01
 -0.60000E+00 -0.20000E+00 -0.71056E+00  0.10000E+01
 -0.60000E+00 -0.20000E+00 -0.60000E+00  0.10000E+01
 -0.48944E+00 -0.60000E+00 -0.10000E+01  0.10000E+01
 -0.48944E+00 -0.60000E+00 -0.88944E+00  0.10000E+01
 -0.48944E+00 -0.60000E+00 -0.71056E+00  0.10000E+01
 -0.48944E+00 -0.60000E+00 -0.60000E+00  0.10000E+01
 -0.48944E+00 -0.48944E+00 -0.10000E+01  0.10000E+01
 -0.48944E+00 -0.48944E+00 -0.88944E+00  0.10000E+01
 -0.48944E+00 -0.48944E+00 -0.71056E+00  0.10000E+01
 -0.48944E+00 -0.48944E+00 -0.60000E+00  0.10000E+01
 -0.48944E+00 -0.31056E+00 -0.10000E+01  0.10000E+01
 -0.48944E+00 -0.31056E+00 -0.88944E+00  0.10000E+01
 -0.48944E+00 -0.31056E+00 -0.71056E+00  0.10000E+01
 -0.48944E+00 -0.31056E+00 -0.60000E+00  0.10000E+01
 -0.48944E+00 -0.20000E+00 -0.10000E+01  0.10000E+01
 -0.48944E+00 -0.20000E+00 -0.88944E+00  0.10000E+01
 -0.48944E+00 -0.20000E+00 -0.71056E+00  0.10000E+01
 -0.48944E+00 -0.20000E+00 -0.60000E+00  0.10000E+01
 -0.31056E+00 -0.60000E+00 -0.10000E+01  0.10000E+01
 -0.31056E+00 -0.60000E+00 -0.88944E+00  0.10000E+01
 -0.31056E+00 -0.60000E+00 -0.71056E+00  0.10000E+01
 -0.31056E+00 -0.60000E+00 -0.60000E+00  0.10000E+01
 -0.31056E+00 -0.48944E+00 -0.10000E+01  0.10000E+01
 -0.31056E+00 -0.48944E+00 -0.88944E+00  0.10000E+01
 -0.31056E+00 -0.48944E+00 -0.71056E+00  0.10000E+01
 -0.31056E+00 -0.48944E+00 -0.60000E+00  0.10000E+01
 -0.31056E+00 -0.31056E+00 -0.10000E+01  0.10000E+01
 -0.31056E+00 -0.31056E+00 -0.88944E+00  0.10000E+01
 -0.31056E+00 -0.31056E+00 -0.71056E+00  0.10000E+01
 -0.31056E+00 -0.31056E+00 -0.60000E+00  0.10000E+01
 -0.31056E+00 -0.20000E+00 -0.10000E+01  0.10000E+01
 -0.31056E+00 -0.20000E+00 -0.88944E+00  0.10000E+01
 -0.31056E+00 -0.20000E+00 -0.71056E+00  0.10000E+01
 -0.31056E+00 -0.20000E+00 -0.60000E+00  0.10000E+01
 -0.20000E+00 -0.60000E+00 -0.10000E+01  0.10000E+01
 -0.20000E+00 -0.60000E+00 -0.88944E+00  0.10000E+01
 -0.20000E+00 -0.60000E+00 -0.71056E+00  0.10000E+01
 -0.20000E+00 -0.60000E+00 -0.60000E+00  0.10000E+01
 -0.20000E+00 -0.48944E+00 -0.10000E+01  0.10000E+01
 -0.20000E+00 -0.48944E+00 -0.88944E+00  0.10000E+01
 -0.20000E+00 -0.48944E+00 -0.71056E+00  0.10000E+01
 -0.20000E+00 -0.48944E+00 -0.60000E+00  0.10000E+01
 -0.20000E+00 -0.31056E+00 -0.10000E+01  0.10000E+01
 -0.20000E+00 -0.31056E+00 -0.88944E+00  0.10000E+01
 -0.20000E+00 -0.31056E+00 -0.71056E+00  0.10000E+01
 -0.20000E+00 -0.31056E+00 -0.60000E+00  0.10000E+01
 -0.20000E+00 -0.20000E+00 -0.10000E+01  0.10000E+01
 -0.20000E+00 -0.20000E+00 -0.88944E+00  0.10000E+01
 -0.20000E+00 -0.20000E+00 -0.71056E+00  0.10000E+01
 -0.20000E+00 -0.20000E+00 -0.60000E+00  0.10000E+01
 ZONE I =           4 ,J=           4 ,K=           4 ,F=POINT
 -0.20000E+00 -0.60000E+00 -0.10000E+01  0.10000E+01
 -0.20000E+00 -0.60000E+00 -0.88944E+00  0.10000E+01
 -0.20000E+00 -0.60000E+00 -0.71056E+00  0.10000E+01
 -0.20000E+00 -0.60000E+00 -0.60000E+00  0.10000E+01
 -0.20000E+00 -0.48944E+00 -0.10000E+01  0.10000E+01
 -0.20000E+00 -0.48944E+00 -0.88944E+00  0.10000E+01
 -0.20000E+00 -0.48944E+00 -0.71056E+00  0.10000E+01
 -0.20000E+00 -0.48944E+00 -0.60000E+00  0.10000E+01
 -0.20000E+00 -0.31056E+00 -0.10000E+01  0.10000E+01
 -0.20000E+00 -0.31056E+00 -0.88944E+00  0.10000E+01
 -0.20000E+00 -0.31056E+00 -0.71056E+00  0.10000E+01
 -0.20000E+00 -0.31056E+00 -0.60000E+00  0.10000E+01
 -0.20000E+00 -0.20000E+00 -0.10000E+01  0.10000E+01
 -0.20000E+00 -0.20000E+00 -0.88944E+00  0.10000E+01
 -0.20000E+00 -0.20000E+00 -0.71056E+00  0.10000E+01
 -0.20000E+00 -0.20000E+00 -0.60000E+00  0.10000E+01
 -0.89443E-01 -0.60000E+00 -0.10000E+01  0.10000E+01
 -0.89443E-01 -0.60000E+00 -0.88944E+00  0.10000E+01
 -0.89443E-01 -0.60000E+00 -0.71056E+00  0.10000E+01
 -0.89443E-01 -0.60000E+00 -0.60000E+00  0.10000E+01
 -0.89443E-01 -0.48944E+00 -0.10000E+01  0.10000E+01
 -0.89443E-01 -0.48944E+00 -0.88944E+00  0.10000E+01
 -0.89443E-01 -0.48944E+00 -0.71056E+00  0.10000E+01
 -0.89443E-01 -0.48944E+00 -0.60000E+00  0.10000E+01
 -0.89443E-01 -0.31056E+00 -0.10000E+01  0.10000E+01
 -0.89443E-01 -0.31056E+00 -0.88944E+00  0.10000E+01
 -0.89443E-01 -0.31056E+00 -0.71056E+00  0.10000E+01
 -0.89443E-01 -0.31056E+00 -0.60000E+00  0.10000E+01
 -0.89443E-01 -0.20000E+00 -0.10000E+01  0.10000E+01
 -0.89443E-01 -0.20000E+00 -0.88944E+00  0.10000E+01
 -0.89443E-01 -0.20000E+00 -0.71056E+00  0.10000E+01
 -0.89443E-01 -0.20000E+00 -0.60000E+00  0.10000E+01
  0.89443E-01 -0.60000E+00 -0.10000E+01  0.10000E+01
  0.89443E-01 -0.60000E+00 -0.88944E+00  0.10000E+01
  0.89443E-01 -0.60000E+00 -0.71056E+00  0.10000E+01
  0.89443E-01 -0.60000E+00 -0.60000E+00  0.10000E+01
  0.89443E-01 -0.48944E+00 -0.10000E+01  0.10000E+01
  0.89443E-01 -0.48944E+00 -0.88944E+00  0.10000E+01
  0.89443E-01 -0.48944E+00 -0.71056E+00  0.10000E+01
  0.89443E-01 -0.48944E+00 -0.60000E+00  0.10000E+01
  0.89443E-01 -0.31056E+00 -0.10000E+01  0.10000E+01
  0.89443E-01 -0.31056E+00 -0.88944E+00  0.10000E+01
  0.89443E-01 -0.31056E+00 -0.71056E+00  0.10000E+01
  0.89443E-01 -0.31056E+00 -0.60000E+00  0.10000E+01
  0.89443E-01 -0.20000E+00 -0.10000E+01  0.10000E+01
  0.89443E-01 -0.20000E+00 -0.88944E+00  0.10000E+01
  0.89443E-01 -0.20000E+00 -0.71056E+00  0.10000E+01
  0.89443E-01 -0.20000E+00 -0.60000E+00  0.10000E+01
  0.20000E+00 -0.60000E+00 -0.10000E+01  0.10000E+01
  0.20000E+00 -0.60000E+00 -0.88944E+00  0.10000E+01
  0.20000E+00 -0.60000E+00 -0.71056E+00  0.10000E+01
  0.20000E+00 -0.60000E+00 -0.60000E+00  0.10000E+01
  0.20000E+00 -0.48944E+00 -0.10000E+01  0.10000E+01
  0.20000E+00 -0.48944E+00 -0.88944E+00  0.10000E+01
  0.20000E+00 -0.48944E+00 -0.71056E+00  0.10000E+01
  0.20000E+00 -0.48944E+00 -0.60000E+00  0.10000E+01
  0.20000E+00 -0.31056E+00 -0.10000E+01  0.10000E+01
  0.20000E+00 -0.31056E+00 -0.88944E+00  0.10000E+01
  0.20000E+00 -0.31056E+00 -0.71056E+00  0.10000E+01
  0.20000E+00 -0.31056E+00 -0.60000E+00  0.10000E+01
  0.20000E+00 -0.20000E+00 -0.10000E+01  0.10000E+01
  0.20000E+00 -0.20000E+00 -0.88944E+00  0.10000E+01
  0.20000E+00 -0.20000E+00 -0.71056E+00  0.10000E+01
  0.20000E+00 -0.20000E+00 -0.60000E+00  0.10000E+01
 ZONE I =           4 ,J=           4 ,K=           4 ,F=POINT
  0.20000E+00 -0.60000E+00 -0.10000E+01  0.10000E+01
  0.20000E+00 -0.60000E+00 -0.88944E+00  0.10000E+01
  0.20000E+00 -0.60000E+00 -0.71056E+00  0.10000E+01
  0.20000E+00 -0.60000E+00 -0.60000E+00  0.10000E+01
  0.20000E+00 -0.48944E+00 -0.10000E+01  0.10000E+01
  0.20000E+00 -0.48944E+00 -0.88944E+00  0.10000E+01
  0.20000E+00 -0.48944E+00 -0.71056E+00  0.10000E+01
  0.20000E+00 -0.48944E+00 -0.60000E+00  0.10000E+01
  0.20000E+00 -0.31056E+00 -0.10000E+01  0.10000E+01
  0.20000E+00 -0.31056E+00 -0.88944E+00  0.10000E+01
  0.20000E+00 -0.31056E+00 -0.71056E+00  0.10000E+01
  0.20000E+00 -0.31056E+00 -0.60000E+00  0.10000E+01
  0.20000E+00 -0.20000E+00 -0.10000E+01  0.10000E+01
  0.20000E+00 -0.20000E+00 -0.88944E+00  0.10000E+01
  0.20000E+00 -0.20000E+00 -0.71056E+00  0.10000E+01
  0.20000E+00 -0.20000E+00 -0.60000E+00  0.10000E+01
  0.31056E+00 -0.60000E+00 -0.10000E+01  0.10000E+01
  0.31056E+00 -0.60000E+00 -0.88944E+00  0.10000E+01
  0.31056E+00 -0.60000E+00 -0.71056E+00  0.10000E+01
  0.31056E+00 -0.60000E+00 -0.60000E+00  0.10000E+01
  0.31056E+00 -0.48944E+00 -0.10000E+01  0.10000E+01
  0.31056E+00 -0.48944E+00 -0.88944E+00  0.10000E+01
  0.31056E+00 -0.48944E+00 -0.71056E+00  0.10000E+01
  0.31056E+00 -0.48944E+00 -0.60000E+00  0.10000E+01
  0.31056E+00 -0.31056E+00 -0.10000E+01  0.10000E+01
  0.31056E+00 -0.31056E+00 -0.88944E+00  0.10000E+01
  0.31056E+00 -0.31056E+00 -0.71056E+00  0.10000E+01
  0.31056E+00 -0.31056E+00 -0.60000E+00  0.10000E+01
  0.31056E+00 -0.20000E+00 -0.10000E+01  0.10000E+01
  0.31056E+00 -0.20000E+00 -0.88944E+00  0.10000E+01
  0.31056E+00 -0.20000E+00 -0.71056E+00  0.10000E+01
  0.31056E+00 -0.20000E+00 -0.60000E+00  0.10000E+01
  0.48944E+00 -0.60000E+00 -0.10000E+01  0.10000E+01
  0.48944E+00 -0.60000E+00 -0.88944E+00  0.10000E+01
  0.48944E+00 -0.60000E+00 -0.71056E+00  0.10000E+01
  0.48944E+00 -0.60000E+00 -0.60000E+00  0.10000E+01
  0.48944E+00 -0.48944E+00 -0.10000E+01  0.10000E+01
  0.48944E+00 -0.48944E+00 -0.88944E+00  0.10000E+01
  0.48944E+00 -0.48944E+00 -0.71056E+00  0.10000E+01
  0.48944E+00 -0.48944E+00 -0.60000E+00  0.10000E+01
  0.48944E+00 -0.31056E+00 -0.10000E+01  0.10000E+01
  0.48944E+00 -0.31056E+00 -0.88944E+00  0.10000E+01