 TITLE = "varsolution.tec"
 VARIABLES = "x","y","z","var"
 ZONE I =           4 ,J=           4 ,K=           4 ,F=POINT
 -0.10000E+01 -0.10000E+01 -0.10000E+01  0.19987E+01
 -0.10000E+01 -0.10000E+01 -0.81574E+00  0.24185E+01
 -0.10000E+01 -0.10000E+01 -0.51760E+00  0.22108E+01
 -0.10000E+01 -0.10000E+01 -0.33333E+00  0.18981E+01
 -0.10000E+01 -0.81574E+00 -0.10000E+01  0.24185E+01
 -0.10000E+01 -0.81574E+00 -0.81574E+00  0.22794E+01
 -0.10000E+01 -0.81574E+00 -0.51760E+00  0.19948E+01
 -0.10000E+01 -0.81574E+00 -0.33333E+00  0.18849E+01
 -0.10000E+01 -0.51760E+00 -0.10000E+01  0.22108E+01
 -0.10000E+01 -0.51760E+00 -0.81574E+00  0.19948E+01
 -0.10000E+01 -0.51760E+00 -0.51760E+00  0.19014E+01
 -0.10000E+01 -0.51760E+00 -0.33333E+00  0.19380E+01
 -0.10000E+01 -0.33333E+00 -0.10000E+01  0.18981E+01
 -0.10000E+01 -0.33333E+00 -0.81574E+00  0.18849E+01
 -0.10000E+01 -0.33333E+00 -0.51760E+00  0.19380E+01
 -0.10000E+01 -0.33333E+00 -0.33333E+00  0.19649E+01
 -0.81574E+00 -0.10000E+01 -0.10000E+01  0.24185E+01
 -0.81574E+00 -0.10000E+01 -0.81574E+00  0.22794E+01
 -0.81574E+00 -0.10000E+01 -0.51760E+00  0.19948E+01
 -0.81574E+00 -0.10000E+01 -0.33333E+00  0.18849E+01
 -0.81574E+00 -0.81574E+00 -0.10000E+01  0.22794E+01
 -0.81574E+00 -0.81574E+00 -0.81574E+00  0.21023E+01
 -0.81574E+00 -0.81574E+00 -0.51760E+00  0.19547E+01
 -0.81574E+00 -0.81574E+00 -0.33333E+00  0.19408E+01
 -0.81574E+00 -0.51760E+00 -0.10000E+01  0.19948E+01
 -0.81574E+00 -0.51760E+00 -0.81574E+00  0.19547E+01
 -0.81574E+00 -0.51760E+00 -0.51760E+00  0.19442E+01
 -0.81574E+00 -0.51760E+00 -0.33333E+00  0.19555E+01
 -0.81574E+00 -0.33333E+00 -0.10000E+01  0.18849E+01
 -0.81574E+00 -0.33333E+00 -0.81574E+00  0.19408E+01
 -0.81574E+00 -0.33333E+00 -0.51760E+00  0.19555E+01
 -0.81574E+00 -0.33333E+00 -0.33333E+00  0.19450E+01
 -0.51760E+00 -0.10000E+01 -0.10000E+01  0.22108E+01
 -0.51760E+00 -0.10000E+01 -0.81574E+00  0.19948E+01
 -0.51760E+00 -0.10000E+01 -0.51760E+00  0.19014E+01
 -0.51760E+00 -0.10000E+01 -0.33333E+00  0.19380E+01
 -0.51760E+00 -0.81574E+00 -0.10000E+01  0.19948E+01
 -0.51760E+00 -0.81574E+00 -0.81574E+00  0.19547E+01
 -0.51760E+00 -0.81574E+00 -0.51760E+00  0.19442E+01
 -0.51760E+00 -0.81574E+00 -0.33333E+00  0.19555E+01
 -0.51760E+00 -0.51760E+00 -0.10000E+01  0.19014E+01
 -0.51760E+00 -0.51760E+00 -0.81574E+00  0.19442E+01
 -0.51760E+00 -0.51760E+00 -0.51760E+00  0.19617E+01
 -0.51760E+00 -0.51760E+00 -0.33333E+00  0.19698E+01
 -0.51760E+00 -0.33333E+00 -0.10000E+01  0.19380E+01
 -0.51760E+00 -0.33333E+00 -0.81574E+00  0.19555E+01
 -0.51760E+00 -0.33333E+00 -0.51760E+00  0.19698E+01
 -0.51760E+00 -0.33333E+00 -0.33333E+00  0.19965E+01
 -0.33333E+00 -0.10000E+01 -0.10000E+01  0.18981E+01
 -0.33333E+00 -0.10000E+01 -0.81574E+00  0.18849E+01
 -0.33333E+00 -0.10000E+01 -0.51760E+00  0.19380E+01
 -0.33333E+00 -0.10000E+01 -0.33333E+00  0.19649E+01
 -0.33333E+00 -0.81574E+00 -0.10000E+01  0.18849E+01
 -0.33333E+00 -0.81574E+00 -0.81574E+00  0.19408E+01
 -0.33333E+00 -0.81574E+00 -0.51760E+00  0.19555E+01
 -0.33333E+00 -0.81574E+00 -0.33333E+00  0.19450E+01
 -0.33333E+00 -0.51760E+00 -0.10000E+01  0.19380E+01
 -0.33333E+00 -0.51760E+00 -0.81574E+00  0.19555E+01
 -0.33333E+00 -0.51760E+00 -0.51760E+00  0.19698E+01
 -0.33333E+00 -0.51760E+00 -0.33333E+00  0.19965E+01
 -0.33333E+00 -0.33333E+00 -0.10000E+01  0.19649E+01
 -0.33333E+00 -0.33333E+00 -0.81574E+00  0.19450E+01
 -0.33333E+00 -0.33333E+00 -0.51760E+00  0.19965E+01
 -0.33333E+00 -0.33333E+00 -0.33333E+00  0.20599E+01
 ZONE I =           4 ,J=           4 ,K=           4 ,F=POINT
 -0.33333E+00 -0.10000E+01 -0.10000E+01  0.13923E+01
 -0.33333E+00 -0.10000E+01 -0.81574E+00  0.16674E+01
 -0.33333E+00 -0.10000E+01 -0.51760E+00  0.20611E+01
 -0.33333E+00 -0.10000E+01 -0.33333E+00  0.20974E+01
 -0.33333E+00 -0.81574E+00 -0.10000E+01  0.16674E+01
 -0.33333E+00 -0.81574E+00 -0.81574E+00  0.19441E+01
 -0.33333E+00 -0.81574E+00 -0.51760E+00  0.20348E+01
 -0.33333E+00 -0.81574E+00 -0.33333E+00  0.19576E+01
 -0.33333E+00 -0.51760E+00 -0.10000E+01  0.20611E+01
 -0.33333E+00 -0.51760E+00 -0.81574E+00  0.20348E+01
 -0.33333E+00 -0.51760E+00 -0.51760E+00  0.19497E+01
 -0.33333E+00 -0.51760E+00 -0.33333E+00  0.19475E+01
 -0.33333E+00 -0.33333E+00 -0.10000E+01  0.20974E+01
 -0.33333E+00 -0.33333E+00 -0.81574E+00  0.19576E+01
 -0.33333E+00 -0.33333E+00 -0.51760E+00  0.19475E+01
 -0.33333E+00 -0.33333E+00 -0.33333E+00  0.20313E+01
 -0.14907E+00 -0.10000E+01 -0.10000E+01  0.16674E+01
 -0.14907E+00 -0.10000E+01 -0.81574E+00  0.19441E+01
 -0.14907E+00 -0.10000E+01 -0.51760E+00  0.20348E+01
 -0.14907E+00 -0.10000E+01 -0.33333E+00  0.19576E+01
 -0.14907E+00 -0.81574E+00 -0.10000E+01  0.19441E+01
 -0.14907E+00 -0.81574E+00 -0.81574E+00  0.20279E+01
 -0.14907E+00 -0.81574E+00 -0.51760E+00  0.19827E+01
 -0.14907E+00 -0.81574E+00 -0.33333E+00  0.19392E+01
 -0.14907E+00 -0.51760E+00 -0.10000E+01  0.20348E+01
 -0.14907E+00 -0.51760E+00 -0.81574E+00  0.19827E+01
 -0.14907E+00 -0.51760E+00 -0.51760E+00  0.19843E+01
 -0.14907E+00 -0.51760E+00 -0.33333E+00  0.20285E+01
 -0.14907E+00 -0.33333E+00 -0.10000E+01  0.19576E+01
 -0.14907E+00 -0.33333E+00 -0.81574E+00  0.19392E+01
 -0.14907E+00 -0.33333E+00 -0.51760E+00  0.20285E+01
 -0.14907E+00 -0.33333E+00 -0.33333E+00  0.20961E+01
  0.14907E+00 -0.10000E+01 -0.10000E+01  0.20611E+01
  0.14907E+00 -0.10000E+01 -0.81574E+00  0.20348E+01
  0.14907E+00 -0.10000E+01 -0.51760E+00  0.19497E+01
  0.14907E+00 -0.10000E+01 -0.33333E+00  0.19475E+01
  0.14907E+00 -0.81574E+00 -0.10000E+01  0.20348E+01
  0.14907E+00 -0.81574E+00 -0.81574E+00  0.19827E+01
  0.14907E+00 -0.81574E+00 -0.51760E+00  0.19843E+01
  0.14907E+00 -0.81574E+00 -0.33333E+00  0.20285E+01
  0.14907E+00 -0.51760E+00 -0.10000E+01  0.19497E+01
  0.14907E+00 -0.51760E+00 -0.81574E+00  0.19843E+01
  0.14907E+00 -0.51760E+00 -0.51760E+00  0.20697E+01
  0.14907E+00 -0.51760E+00 -0.33333E+00  0.20989E+01
  0.14907E+00 -0.33333E+00 -0.10000E+01  0.19475E+01
  0.14907E+00 -0.33333E+00 -0.81574E+00  0.20285E+01
  0.14907E+00 -0.33333E+00 -0.51760E+00  0.20989E+01
  0.14907E+00 -0.33333E+00 -0.33333E+00  0.20870E+01
  0.33333E+00 -0.10000E+01 -0.10000E+01  0.20974E+01
  0.33333E+00 -0.10000E+01 -0.81574E+00  0.19576E+01
  0.33333E+00 -0.10000E+01 -0.51760E+00  0.19475E+01
  0.33333E+00 -0.10000E+01 -0.33333E+00  0.20313E+01
  0.33333E+00 -0.81574E+00 -0.10000E+01  0.19576E+01
  0.33333E+00 -0.81574E+00 -0.81574E+00  0.19392E+01
  0.33333E+00 -0.81574E+00 -0.51760E+00  0.20285E+01
  0.33333E+00 -0.81574E+00 -0.33333E+00  0.20961E+01
  0.33333E+00 -0.51760E+00 -0.10000E+01  0.19475E+01
  0.33333E+00 -0.51760E+00 -0.81574E+00  0.20285E+01
  0.33333E+00 -0.51760E+00 -0.51760E+00  0.20989E+01
  0.33333E+00 -0.51760E+00 -0.33333E+00  0.20870E+01
  0.33333E+00 -0.33333E+00 -0.10000E+01  0.20313E+01
  0.33333E+00 -0.33333E+00 -0.81574E+00  0.20961E+01
  0.33333E+00 -0.33333E+00 -0.51760E+00  0.20870E+01
  0.33333E+00 -0.33333E+00 -0.33333E+00  0.20284E+01
 ZONE I =           4 ,J=           4 ,K=           4 ,F=POINT
  0.33333E+00 -0.10000E+01 -0.10000E+01  0.24210E+01
  0.33333E+00 -0.10000E+01 -0.81574E+00  0.19709E+01
  0.33333E+00 -0.10000E+01 -0.51760E+00  0.18347E+01
  0.33333E+00 -0.10000E+01 -0.33333E+00  0.19828E+01
  0.33333E+00 -0.81574E+00 -0.10000E+01  0.19709E+01
  0.33333E+00 -0.81574E+00 -0.81574E+00  0.18715E+01
  0.33333E+00 -0.81574E+00 -0.51760E+00  0.19966E+01
  0.33333E+00 -0.81574E+00 -0.33333E+00  0.21300E+01
  0.33333E+00 -0.51760E+00 -0.10000E+01  0.18347E+01
  0.33333E+00 -0.51760E+00 -0.81574E+00  0.19966E+01
  0.33333E+00 -0.51760E+00 -0.51760E+00  0.21327E+01
  0.33333E+00 -0.51760E+00 -0.33333E+00  0.21220E+01
  0.33333E+00 -0.33333E+00 -0.10000E+01  0.19828E+01
  0.33333E+00 -0.33333E+00 -0.81574E+00  0.21300E+01
  0.33333E+00 -0.33333E+00 -0.51760E+00  0.21220E+01
  0.33333E+00 -0.33333E+00 -0.33333E+00  0.20233E+01
  0.51760E+00 -0.10000E+01 -0.10000E+01  0.19709E+01
  0.51760E+00 -0.10000E+01 -0.81574E+00  0.18715E+01
  0.51760E+00 -0.10000E+01 -0.51760E+00  0.19966E+01
  0.51760E+00 -0.10000E+01 -0.33333E+00  0.21300E+01
  0.51760E+00 -0.81574E+00 -0.10000E+01  0.18715E+01
  0.51760E+00 -0.81574E+00 -0.81574E+00  0.19271E+01
  0.51760E+00 -0.81574E+00 -0.51760E+00  0.20619E+01
  0.51760E+00 -0.81574E+00 -0.33333E+00  0.21124E+01
  0.51760E+00 -0.51760E+00 -0.10000E+01  0.19966E+01
  0.51760E+00 -0.51760E+00 -0.81574E+00  0.20619E+01
  0.51760E+00 -0.51760E+00 -0.51760E+00  0.20687E+01
  0.51760E+00 -0.51760E+00 -0.33333E+00  0.20242E+01
  0.51760E+00 -0.33333E+00 -0.10000E+01  0.21300E+01
  0.51760E+00 -0.33333E+00 -0.81574E+00  0.21124E+01
  0.51760E+00 -0.33333E+00 -0.51760E+00  0.20242E+01
  0.51760E+00 -0.33333E+00 -0.33333E+00  0.19614E+01
  0.81574E+00 -0.10000E+01 -0.10000E+01  0.18347E+01
  0.81574E+00 -0.10000E+01 -0.81574E+00  0.19966E+01
  0.81574E+00 -0.10000E+01 -0.51760E+00  0.21327E+01
  0.81574E+00 -0.10000E+01 -0.33333E+00  0.21220E+01
  0.81574E+00 -0.81574E+00 -0.10000E+01  0.19966E+01
  0.81574E+00 -0.81574E+00 -0.81574E+00  0.20619E+01
  0.81574E+00 -0.81574E+00 -0.51760E+00  0.20687E+01
  0.81574E+00 -0.81574E+00 -0.33333E+00  0.20242E+01
  0.81574E+00 -0.51760E+00 -0.10000E+01  0.21327E+01
  0.81574E+00 -0.51760E+00 -0.81574E+00  0.20687E+01
  0.81574E+00 -0.51760E+00 -0.51760E+00  0.19730E+01
  0.81574E+00 -0.51760E+00 -0.33333E+00  0.19309E+01
  0.81574E+00 -0.33333E+00 -0.10000E+01  0.21220E+01
  0.81574E+00 -0.33333E+00 -0.81574E+00  0.20242E+01
  0.81574E+00 -0.33333E+00 -0.51760E+00  0.19309E+01
  0.81574E+00 -0.33333E+00 -0.33333E+00  0.19125E+01
  0.10000E+01 -0.10000E+01 -0.10000E+01  0.19828E+01
  0.10000E+01 -0.10000E+01 -0.81574E+00  0.21300E+01
  0.10000E+01 -0.10000E+01 -0.51760E+00  0.21220E+01
  0.10000E+01 -0.10000E+01 -0.33333E+00  0.20233E+01
  0.10000E+01 -0.81574E+00 -0.10000E+01  0.21300E+01
  0.10000E+01 -0.81574E+00 -0.81574E+00  0.21124E+01
  0.10000E+01 -0.81574E+00 -0.51760E+00  0.20242E+01
  0.10000E+01 -0.81574E+00 -0.33333E+00  0.19614E+01
  0.10000E+01 -0.51760E+00 -0.10000E+01  0.21220E+01
  0.10000E+01 -0.51760E+00 -0.81574E+00  0.20242E+01
  0.10000E+01 -0.51760E+00 -0.51760E+00  0.19309E+01
  0.10000E+01 -0.51760E+00 -0.33333E+00  0.19125E+01
  0.10000E+01 -0.33333E+00 -0.10000E+01  0.20233E+01
  0.10000E+01 -0.33333E+00 -0.81574E+00  0.19614E+01
  0.10000E+01 -0.33333E+00 -0.51760E+00  0.19125E+01
  0.10000E+01 -0.33333E+00 -0.33333E+00  0.19122E+01
 ZONE I =           4 ,J=           4 ,K=           4 ,F=POINT
 -0.10000E+01 -0.33333E+00 -0.10000E+01  0.13923E+01
 -0.10000E+01 -0.33333E+00 -0.81574E+00  0.16674E+01
 -0.10000E+01 -0.33333E+00 -0.51760E+00  0.20611E+01
 -0.10000E+01 -0.33333E+00 -0.33333E+00  0.20974E+01
 -0.10000E+01 -0.14907E+00 -0.10000E+01  0.16674E+01
 -0.10000E+01 -0.14907E+00 -0.81574E+00  0.19441E+01
 -0.10000E+01 -0.14907E+00 -0.51760E+00  0.20348E+01
 -0.10000E+01 -0.14907E+00 -0.33333E+00  0.19576E+01
 -0.10000E+01  0.14907E+00 -0.10000E+01  0.20611E+01
 -0.10000E+01  0.14907E+00 -0.81574E+00  0.20348E+01
 -0.10000E+01  0.14907E+00 -0.51760E+00  0.19497E+01
 -0.10000E+01  0.14907E+00 -0.33333E+00  0.19475E+01
 -0.10000E+01  0.33333E+00 -0.10000E+01  0.20974E+01
 -0.10000E+01  0.33333E+00 -0.81574E+00  0.19576E+01
 -0.10000E+01  0.33333E+00 -0.51760E+00  0.19475E+01
 -0.10000E+01  0.33333E+00 -0.33333E+00  0.20313E+01
 -0.81574E+00 -0.33333E+00 -0.10000E+01  0.16674E+01
 -0.81574E+00 -0.33333E+00 -0.81574E+00  0.19441E+01
 -0.81574E+00 -0.33333E+00 -0.51760E+00  0.20348E+01
 -0.81574E+00 -0.33333E+00 -0.33333E+00  0.19576E+01
 -0.81574E+00 -0.14907E+00 -0.10000E+01  0.19441E+01
 -0.81574E+00 -0.14907E+00 -0.81574E+00  0.20279E+01
 -0.81574E+00 -0.14907E+00 -0.51760E+00  0.19827E+01
 -0.81574E+00 -0.14907E+00 -0.33333E+00  0.19392E+01
 -0.81574E+00  0.14907E+00 -0.10000E+01  0.20348E+01
 -0.81574E+00  0.14907E+00 -0.81574E+00  0.19827E+01
 -0.81574E+00  0.14907E+00 -0.51760E+00  0.19843E+01
 -0.81574E+00  0.14907E+00 -0.33333E+00  0.20285E+01
 -0.81574E+00  0.33333E+00 -0.10000E+01  0.19576E+01
 -0.81574E+00  0.33333E+00 -0.81574E+00  0.19392E+01
 -0.81574E+00  0.33333E+00 -0.51760E+00  0.20285E+01
 -0.81574E+00  0.33333E+00 -0.33333E+00  0.20961E+01
 -0.51760E+00 -0.33333E+00 -0.10000E+01  0.20611E+01
 -0.51760E+00 -0.33333E+00 -0.81574E+00  0.20348E+01
 -0.51760E+00 -0.33333E+00 -0.51760E+00  0.19497E+01
 -0.51760E+00 -0.33333E+00 -0.33333E+00  0.19475E+01
 -0.51760E+00 -0.14907E+00 -0.10000E+01  0.20348E+01
 -0.51760E+00 -0.14907E+00 -0.81574E+00  0.19827E+01
 -0.51760E+00 -0.14907E+00 -0.51760E+00  0.19843E+01
 -0.51760E+00 -0.14907E+00 -0.33333E+00  0.20285E+01
 -0.51760E+00  0.14907E+00 -0.10000E+01  0.19497E+01
 -0.51760E+00  0.14907E+00 -0.81574E+00  0.19843E+01
 -0.51760E+00  0.14907E+00 -0.51760E+00  0.20697E+01
 -0.51760E+00  0.14907E+00 -0.33333E+00  0.20989E+01
 -0.51760E+00  0.33333E+00 -0.10000E+01  0.19475E+01
 -0.51760E+00  0.33333E+00 -0.81574E+00  0.20285E+01
 -0.51760E+00  0.33333E+00 -0.51760E+00  0.20989E+01
 -0.51760E+00  0.33333E+00 -0.33333E+00  0.20870E+01
 -0.33333E+00 -0.33333E+00 -0.10000E+01  0.20974E+01
 -0.33333E+00 -0.33333E+00 -0.81574E+00  0.19576E+01
 -0.33333E+00 -0.33333E+00 -0.51760E+00  0.19475E+01
 -0.33333E+00 -0.33333E+00 -0.33333E+00  0.20313E+01
 -0.33333E+00 -0.14907E+00 -0.10000E+01  0.19576E+01
 -0.33333E+00 -0.14907E+00 -0.81574E+00  0.19392E+01
 -0.33333E+00 -0.14907E+00 -0.51760E+00  0.20285E+01
 -0.33333E+00 -0.14907E+00 -0.33333E+00  0.20961E+01
 -0.33333E+00  0.14907E+00 -0.10000E+01  0.19475E+01
 -0.33333E+00  0.14907E+00 -0.81574E+00  0.20285E+01
 -0.33333E+00  0.14907E+00 -0.51760E+00  0.20989E+01
 -0.33333E+00  0.14907E+00 -0.33333E+00  0.20870E+01
 -0.33333E+00  0.33333E+00 -0.10000E+01  0.20313E+01
 -0.33333E+00  0.33333E+00 -0.81574E+00  0.20961E+01
 -0.33333E+00  0.33333E+00 -0.51760E+00  0.20870E+01
 -0.33333E+00  0.33333E+00 -0.33333E+00  0.20284E+01
 ZONE I =           4 ,J=           4 ,K=           4 ,F=POINT
 -0.33333E+00 -0.33333E+00 -0.10000E+01  0.24210E+01
 -0.33333E+00 -0.33333E+00 -0.81574E+00  0.19709E+01
 -0.33333E+00 -0.33333E+00 -0.51760E+00  0.18347E+01
 -0.33333E+00 -0.33333E+00 -0.33333E+00  0.19828E+01
 -0.33333E+00 -0.14907E+00 -0.10000E+01  0.19709E+01
 -0.33333E+00 -0.14907E+00 -0.81574E+00  0.18715E+01
 -0.33333E+00 -0.14907E+00 -0.51760E+00  0.19966E+01
 -0.33333E+00 -0.14907E+00 -0.33333E+00  0.21300E+01
 -0.33333E+00  0.14907E+00 -0.10000E+01  0.18347E+01
 -0.33333E+00  0.14907E+00 -0.81574E+00  0.19966E+01
 -0.33333E+00  0.14907E+00 -0.51760E+00  0.21327E+01
 -0.33333E+00  0.14907E+00 -0.33333E+00  0.21220E+01
 -0.33333E+00  0.33333E+00 -0.10000E+01  0.19828E+01
 -0.33333E+00  0.33333E+00 -0.81574E+00  0.21300E+01
 -0.33333E+00  0.33333E+00 -0.51760E+00  0.21220E+01
 -0.33333E+00  0.33333E+00 -0.33333E+00  0.20233E+01
 -0.14907E+00 -0.33333E+00 -0.10000E+01  0.19709E+01
 -0.14907E+00 -0.33333E+00 -0.81574E+00  0.18715E+01
 -0.14907E+00 -0.33333E+00 -0.51760E+00  0.19966E+01
 -0.14907E+00 -0.33333E+00 -0.33333E+00  0.21300E+01
 -0.14907E+00 -0.14907E+00 -0.10000E+01  0.18715E+01
 -0.14907E+00 -0.14907E+00 -0.81574E+00  0.19271E+01
 -0.14907E+00 -0.14907E+00 -0.51760E+00  0.20619E+01
 -0.14907E+00 -0.14907E+00 -0.33333E+00  0.21124E+01
 -0.14907E+00  0.14907E+00 -0.10000E+01  0.19966E+01
 -0.14907E+00  0.14907E+00 -0.81574E+00  0.20619E+01
 -0.14907E+00  0.14907E+00 -0.51760E+00  0.20687E+01
 -0.14907E+00  0.14907E+00 -0.33333E+00  0.20242E+01
 -0.14907E+00  0.33333E+00 -0.10000E+01  0.21300E+01
 -0.14907E+00  0.33333E+00 -0.81574E+00  0.21124E+01
 -0.14907E+00  0.33333E+00 -0.51760E+00  0.20242E+01
 -0.14907E+00  0.33333E+00 -0.33333E+00  0.19614E+01
  0.14907E+00 -0.33333E+00 -0.10000E+01  0.18347E+01
  0.14907E+00 -0.33333E+00 -0.81574E+00  0.19966E+01
  0.14907E+00 -0.33333E+00 -0.51760E+00  0.21327E+01
  0.14907E+00 -0.33333E+00 -0.33333E+00  0.21220E+01
  0.14907E+00 -0.14907E+00 -0.10000E+01  0.19966E+01
  0.14907E+00 -0.14907E+00 -0.81574E+00  0.20619E+01
  0.14907E+00 -0.14907E+00 -0.51760E+00  0.20687E+01
  0.14907E+00 -0.14907E+00 -0.33333E+00  0.20242E+01
  0.14907E+00  0.14907E+00 -0.10000E+01  0.21327E+01
  0.14907E+00  0.14907E+00 -0.81574E+00  0.20687E+01
  0.14907E+00  0.14907E+00 -0.51760E+00  0.19730E+01
  0.14907E+00  0.14907E+00 -0.33333E+00  0.19309E+01
  0.14907E+00  0.33333E+00 -0.10000E+01  0.21220E+01
  0.14907E+00  0.33333E+00 -0.81574E+00  0.20242E+01
  0.14907E+00  0.33333E+00 -0.51760E+00  0.19309E+01
  0.14907E+00  0.33333E+00 -0.33333E+00  0.19125E+01
  0.33333E+00 -0.33333E+00 -0.10000E+01  0.19828E+01
  0.33333E+00 -0.33333E+00 -0.81574E+00  0.21300E+01
  0.33333E+00 -0.33333E+00 -0.51760E+00  0.21220E+01
  0.33333E+00 -0.33333E+00 -0.33333E+00  0.20233E+01
  0.33333E+00 -0.14907E+00 -0.10000E+01  0.21300E+01
  0.33333E+00 -0.14907E+00 -0.81574E+00  0.21124E+01
  0.33333E+00 -0.14907E+00 -0.51760E+00  0.20242E+01
  0.33333E+00 -0.14907E+00 -0.33333E+00  0.19614E+01
  0.33333E+00  0.14907E+00 -0.10000E+01  0.21220E+01
  0.33333E+00  0.14907E+00 -0.81574E+00  0.20242E+01
  0.33333E+00  0.14907E+00 -0.51760E+00  0.19309E+01
  0.33333E+00  0.14907E+00 -0.33333E+00  0.19125E+01
  0.33333E+00  0.33333E+00 -0.10000E+01  0.20233E+01
  0.33333E+00  0.33333E+00 -0.81574E+00  0.19614E+01
  0.33333E+00  0.33333E+00 -0.51760E+00  0.19125E+01
  0.33333E+00  0.33333E+00 -0.33333E+00  0.19122E+01
 ZONE I =           4 ,J=           4 ,K=           4 ,F=POINT
  0.33333E+00 -0.33333E+00 -0.10000E+01  0.19987E+01
  0.33333E+00 -0.33333E+00 -0.81574E+00  0.24185E+01
  0.33333E+00 -0.33333E+00 -0.51760E+00  0.22108E+01
  0.33333E+00 -0.33333E+00 -0.33333E+00  0.18981E+01
  0.33333E+00 -0.14907E+00 -0.10000E+01  0.24185E+01
  0.33333E+00 -0.14907E+00 -0.81574E+00  0.22794E+01
  0.33333E+00 -0.14907E+00 -0.51760E+00  0.19948E+01
  0.33333E+00 -0.14907E+00 -0.33333E+00  0.18849E+01
  0.33333E+00  0.14907E+00 -0.10000E+01  0.22108E+01
  0.33333E+00  0.14907E+00 -0.81574E+00  0.19948E+01
  0.33333E+00  0.14907E+00 -0.51760E+00  0.19014E+01
  0.33333E+00  0.14907E+00 -0.33333E+00  0.19380E+01
  0.33333E+00  0.33333E+00 -0.10000E+01  0.18981E+01
  0.33333E+00  0.33333E+00 -0.81574E+00  0.18849E+01
  0.33333E+00  0.33333E+00 -0.51760E+00  0.19380E+01
  0.33333E+00  0.33333E+00 -0.33333E+00  0.19649E+01
  0.51760E+00 -0.33333E+00 -0.10000E+01  0.24185E+01
  0.51760E+00 -0.33333E+00 -0.81574E+00  0.22794E+01
  0.51760E+00 -0.33333E+00 -0.51760E+00  0.19948E+01
  0.51760E+00 -0.33333E+00 -0.33333E+00  0.18849E+01
  0.51760E+00 -0.14907E+00 -0.10000E+01  0.22794E+01
  0.51760E+00 -0.14907E+00 -0.81574E+00  0.21023E+01
  0.51760E+00 -0.14907E+00 -0.51760E+00  0.19547E+01
  0.51760E+00 -0.14907E+00 -0.33333E+00  0.19408E+01
  0.51760E+00  0.14907E+00 -0.10000E+01  0.19948E+01
  0.51760E+00  0.14907E+00 -0.81574E+00  0.19547E+01
  0.51760E+00  0.14907E+00 -0.51760E+00  0.19442E+01
  0.51760E+00  0.14907E+00 -0.33333E+00  0.19555E+01
  0.51760E+00  0.33333E+00 -0.10000E+01  0.18849E+01
  0.51760E+00  0.33333E+00 -0.81574E+00  0.19408E+01
  0.51760E+00  0.33333E+00 -0.51760E+00  0.19555E+01
  0.51760E+00  0.33333E+00 -0.33333E+00  0.19450E+01
  0.81574E+00 -0.33333E+00 -0.10000E+01  0.22108E+01
  0.81574E+00 -0.33333E+00 -0.81574E+00  0.19948E+01
  0.81574E+00 -0.33333E+00 -0.51760E+00  0.19014E+01
  0.81574E+00 -0.33333E+00 -0.33333E+00  0.19380E+01
  0.81574E+00 -0.14907E+00 -0.10000E+01  0.19948E+01
  0.81574E+00 -0.14907E+00 -0.81574E+00  0.19547E+01
  0.81574E+00 -0.14907E+00 -0.51760E+00  0.19442E+01
  0.81574E+00 -0.14907E+00 -0.33333E+00  0.19555E+01
  0.81574E+00  0.14907E+00 -0.10000E+01  0.19014E+01
  0.81574E+00  0.14907E+00 -0.81574E+00  0.19442E+01
  0.81574E+00  0.14907E+00 -0.51760E+00  0.19617E+01
  0.81574E+00  0.14907E+00 -0.33333E+00  0.19698E+01
  0.81574E+00  0.33333E+00 -0.10000E+01  0.19380E+01
  0.81574E+00  0.33333E+00 -0.81574E+00  0.19555E+01
  0.81574E+00  0.33333E+00 -0.51760E+00  0.19698E+01
  0.81574E+00  0.33333E+00 -0.33333E+00  0.19965E+01
  0.10000E+01 -0.33333E+00 -0.10000E+01  0.18981E+01
  0.10000E+01 -0.33333E+00 -0.81574E+00  0.18849E+01
  0.10000E+01 -0.33333E+00 -0.51760E+00  0.19380E+01
  0.10000E+01 -0.33333E+00 -0.33333E+00  0.19649E+01
  0.10000E+01 -0.14907E+00 -0.10000E+01  0.18849E+01
  0.10000E+01 -0.14907E+00 -0.81574E+00  0.19408E+01
  0.10000E+01 -0.14907E+00 -0.51760E+00  0.19555E+01
  0.10000E+01 -0.14907E+00 -0.33333E+00  0.19450E+01
  0.10000E+01  0.14907E+00 -0.10000E+01  0.19380E+01
  0.10000E+01  0.14907E+00 -0.81574E+00  0.19555E+01
  0.10000E+01  0.14907E+00 -0.51760E+00  0.19698E+01
  0.10000E+01  0.14907E+00 -0.33333E+00  0.19965E+01
  0.10000E+01  0.33333E+00 -0.10000E+01  0.19649E+01
  0.10000E+01  0.33333E+00 -0.81574E+00  0.19450E+01
  0.10000E+01  0.33333E+00 -0.51760E+00  0.19965E+01
  0.10000E+01  0.33333E+00 -0.33333E+00  0.20599E+01
 ZONE I =           4 ,J=           4 ,K=           4 ,F=POINT
 -0.10000E+01  0.33333E+00 -0.10000E+01  0.24210E+01
 -0.10000E+01  0.33333E+00 -0.81574E+00  0.19709E+01
 -0.10000E+01  0.33333E+00 -0.51760E+00  0.18347E+01
 -0.10000E+01  0.33333E+00 -0.33333E+00  0.19828E+01
 -0.10000E+01  0.51760E+00 -0.10000E+01  0.19709E+01
 -0.10000E+01  0.51760E+00 -0.81574E+00  0.18715E+01
 -0.10000E+01  0.51760E+00 -0.51760E+00  0.19966E+01
 -0.10000E+01  0.51760E+00 -0.33333E+00  0.21300E+01
 -0.10000E+01  0.81574E+00 -0.10000E+01  0.18347E+01
 -0.10000E+01  0.81574E+00 -0.81574E+00  0.19966E+01
 -0.10000E+01  0.81574E+00 -0.51760E+00  0.21327E+01
 -0.10000E+01  0.81574E+00 -0.33333E+00  0.21220E+01
 -0.10000E+01  0.10000E+01 -0.10000E+01  0.19828E+01
 -0.10000E+01  0.10000E+01 -0.81574E+00  0.21300E+01
 -0.10000E+01  0.10000E+01 -0.51760E+00  0.21220E+01
 -0.10000E+01  0.10000E+01 -0.33333E+00  0.20233E+01
 -0.81574E+00  0.33333E+00 -0.10000E+01  0.19709E+01
 -0.81574E+00  0.33333E+00 -0.81574E+00  0.18715E+01
 -0.81574E+00  0.33333E+00 -0.51760E+00  0.19966E+01
 -0.81574E+00  0.33333E+00 -0.33333E+00  0.21300E+01
 -0.81574E+00  0.51760E+00 -0.10000E+01  0.18715E+01
 -0.81574E+00  0.51760E+00 -0.81574E+00  0.19271E+01
 -0.81574E+00  0.51760E+00 -0.51760E+00  0.20619E+01
 -0.81574E+00  0.51760E+00 -0.33333E+00  0.21124E+01
 -0.81574E+00  0.81574E+00 -0.10000E+01  0.19966E+01
 -0.81574E+00  0.81574E+00 -0.81574E+00  0.20619E+01
 -0.81574E+00  0.81574E+00 -0.51760E+00  0.20687E+01
 -0.81574E+00  0.81574E+00 -0.33333E+00  0.20242E+01
 -0.81574E+00  0.10000E+01 -0.10000E+01  0.21300E+01
 -0.81574E+00  0.10000E+01 -0.81574E+00  0.21124E+01
 -0.81574E+00  0.10000E+01 -0.51760E+00  0.20242E+01
 -0.81574E+00  0.10000E+01 -0.33333E+00  0.19614E+01
 -0.51760E+00  0.33333E+00 -0.10000E+01  0.18347E+01
 -0.51760E+00  0.33333E+00 -0.81574E+00  0.19966E+01
 -0.51760E+00  0.33333E+00 -0.51760E+00  0.21327E+01
 -0.51760E+00  0.33333E+00 -0.33333E+00  0.21220E+01
 -0.51760E+00  0.51760E+00 -0.10000E+01  0.19966E+01
 -0.51760E+00  0.51760E+00 -0.81574E+00  0.20619E+01
 -0.51760E+00  0.51760E+00 -0.51760E+00  0.20687E+01
 -0.51760E+00  0.51760E+00 -0.33333E+00  0.20242E+01
 -0.51760E+00  0.81574E+00 -0.10000E+01  0.21327E+01
 -0.51760E+00  0.81574E+00 -0.81574E+00  0.20687E+01
 -0.51760E+00  0.81574E+00 -0.51760E+00  0.19730E+01
 -0.51760E+00  0.81574E+00 -0.33333E+00  0.19309E+01
 -0.51760E+00  0.10000E+01 -0.10000E+01  0.21220E+01
 -0.51760E+00  0.10000E+01 -0.81574E+00  0.20242E+01
 -0.51760E+00  0.10000E+01 -0.51760E+00  0.19309E+01
 -0.51760E+00  0.10000E+01 -0.33333E+00  0.19125E+01
 -0.33333E+00  0.33333E+00 -0.10000E+01  0.19828E+01
 -0.33333E+00  0.33333E+00 -0.81574E+00  0.21300E+01
 -0.33333E+00  0.33333E+00 -0.51760E+00  0.21220E+01
 -0.33333E+00  0.33333E+00 -0.33333E+00  0.20233E+01
 -0.33333E+00  0.51760E+00 -0.10000E+01  0.21300E+01
 -0.33333E+00  0.51760E+00 -0.81574E+00  0.21124E+01
 -0.33333E+00  0.51760E+00 -0.51760E+00  0.20242E+01
 -0.33333E+00  0.51760E+00 -0.33333E+00  0.19614E+01
 -0.33333E+00  0.81574E+00 -0.10000E+01  0.21220E+01
 -0.33333E+00  0.81574E+00 -0.81574E+00  0.20242E+01
 -0.33333E+00  0.81574E+00 -0.51760E+00  0.19309E+01
 -0.33333E+00  0.81574E+00 -0.33333E+00  0.19125E+01
 -0.33333E+00  0.10000E+01 -0.10000E+01  0.20233E+01
 -0.33333E+00  0.10000E+01 -0.81574E+00  0.19614E+01
 -0.33333E+00  0.10000E+01 -0.51760E+00  0.19125E+01
 -0.33333E+00  0.10000E+01 -0.33333E+00  0.19122E+01
 ZONE I =           4 ,J=           4 ,K=           4 ,F=POINT
 -0.33333E+00  0.33333E+00 -0.10000E+01  0.19987E+01
 -0.33333E+00  0.33333E+00 -0.81574E+00  0.24185E+01
 -0.33333E+00  0.33333E+00 -0.51760E+00  0.22108E+01
 -0.33333E+00  0.33333E+00 -0.33333E+00  0.18981E+01
 -0.33333E+00  0.51760E+00 -0.10000E+01  0.24185E+01
 -0.33333E+00  0.51760E+00 -0.81574E+00  0.22794E+01
 -0.33333E+00  0.51760E+00 -0.51760E+00  0.19948E+01
 -0.33333E+00  0.51760E+00 -0.33333E+00  0.18849E+01
 -0.33333E+00  0.81574E+00 -0.10000E+01  0.22108E+01
 -0.33333E+00  0.81574E+00 -0.81574E+00  0.19948E+01
 -0.33333E+00  0.81574E+00 -0.51760E+00  0.19014E+01
 -0.33333E+00  0.81574E+00 -0.33333E+00  0.19380E+01
 -0.33333E+00  0.10000E+01 -0.10000E+01  0.18981E+01
 -0.33333E+00  0.10000E+01 -0.81574E+00  0.18849E+01
 -0.33333E+00  0.10000E+01 -0.51760E+00  0.19380E+01
 -0.33333E+00  0.10000E+01 -0.33333E+00  0.19649E+01
 -0.14907E+00  0.33333E+00 -0.10000E+01  0.24185E+01
 -0.14907E+00  0.33333E+00 -0.81574E+00  0.22794E+01
 -0.14907E+00  0.33333E+00 -0.51760E+00  0.19948E+01
 -0.14907E+00  0.33333E+00 -0.33333E+00  0.18849E+01
 -0.14907E+00  0.51760E+00 -0.10000E+01  0.22794E+01
 -0.14907E+00  0.51760E+00 -0.81574E+00  0.21023E+01
 -0.14907E+00  0.51760E+00 -0.51760E+00  0.19547E+01
 -0.14907E+00  0.51760E+00 -0.33333E+00  0.19408E+01
 -0.14907E+00  0.81574E+00 -0.10000E+01  0.19948E+01
 -0.14907E+00  0.81574E+00 -0.81574E+00  0.19547E+01
 -0.14907E+00  0.81574E+00 -0.51760E+00  0.19442E+01
 -0.14907E+00  0.81574E+00 -0.33333E+00  0.19555E+01
 -0.14907E+00  0.10000E+01 -0.10000E+01  0.18849E+01
 -0.14907E+00  0.10000E+01 -0.81574E+00  0.19408E+01
 -0.14907E+00  0.10000E+01 -0.51760E+00  0.19555E+01
 -0.14907E+00  0.10000E+01 -0.33333E+00  0.19450E+01
  0.14907E+00  0.33333E+00 -0.10000E+01  0.22108E+01
  0.14907E+00  0.33333E+00 -0.81574E+00  0.19948E+01
  0.14907E+00  0.33333E+00 -0.51760E+00  0.19014E+01
  0.14907E+00  0.33333E+00 -0.33333E+00  0.19380E+01
  0.14907E+00  0.51760E+00 -0.10000E+01  0.19948E+01
  0.14907E+00  0.51760E+00 -0.81574E+00  0.19547E+01
  0.14907E+00  0.51760E+00 -0.51760E+00  0.19442E+01
  0.14907E+00  0.51760E+00 -0.33333E+00  0.19555E+01
  0.14907E+00  0.81574E+00 -0.10000E+01  0.19014E+01
  0.14907E+00  0.81574E+00 -0.81574E+00  0.19442E+01
  0.14907E+00  0.81574E+00 -0.51760E+00  0.19617E+01
  0.14907E+00  0.81574E+00 -0.33333E+00  0.19698E+01
  0.14907E+00  0.10000E+01 -0.10000E+01  0.19380E+01
  0.14907E+00  0.10000E+01 -0.81574E+00  0.19555E+01
  0.14907E+00  0.10000E+01 -0.51760E+00  0.19698E+01
  0.14907E+00  0.10000E+01 -0.33333E+00  0.19965E+01
  0.33333E+00  0.33333E+00 -0.10000E+01  0.18981E+01
  0.33333E+00  0.33333E+00 -0.81574E+00  0.18849E+01
  0.33333E+00  0.33333E+00 -0.51760E+00  0.19380E+01
  0.33333E+00  0.33333E+00 -0.33333E+00  0.19649E+01
  0.33333E+00  0.51760E+00 -0.10000E+01  0.18849E+01
  0.33333E+00  0.51760E+00 -0.81574E+00  0.19408E+01
  0.33333E+00  0.51760E+00 -0.51760E+00  0.19555E+01
  0.33333E+00  0.51760E+00 -0.33333E+00  0.19450E+01
  0.33333E+00  0.81574E+00 -0.10000E+01  0.19380E+01
  0.33333E+00  0.81574E+00 -0.81574E+00  0.19555E+01
  0.33333E+00  0.81574E+00 -0.51760E+00  0.19698E+01
  0.33333E+00  0.81574E+00 -0.33333E+00  0.19965E+01
  0.33333E+00  0.10000E+01 -0.10000E+01  0.19649E+01
  0.33333E+00  0.10000E+01 -0.81574E+00  0.19450E+01
  0.33333E+00  0.10000E+01 -0.51760E+00  0.19965E+01
  0.33333E+00  0.10000E+01 -0.33333E+00  0.20599E+01
 ZONE I =           4 ,J=           4 ,K=           4 ,F=POINT
  0.33333E+00  0.33333E+00 -0.10000E+01  0.13923E+01
  0.33333E+00  0.33333E+00 -0.81574E+00  0.16674E+01
  0.33333E+00  0.33333E+00 -0.51760E+00  0.20611E+01
  0.33333E+00  0.33333E+00 -0.33333E+00  0.20974E+01
  0.33333E+00  0.51760E+00 -0.10000E+01  0.16674E+01
  0.33333E+00  0.51760E+00 -0.81574E+00  0.19441E+01
  0.33333E+00  0.51760E+00 -0.51760E+00  0.20348E+01
  0.33333E+00  0.51760E+00 -0.33333E+00  0.19576E+01
  0.33333E+00  0.81574E+00 -0.10000E+01  0.20611E+01
  0.33333E+00  0.81574E+00 -0.81574E+00  0.20348E+01
  0.33333E+00  0.81574E+00 -0.51760E+00  0.19497E+01
  0.33333E+00  0.81574E+00 -0.33333E+00  0.19475E+01
  0.33333E+00  0.10000E+01 -0.10000E+01  0.20974E+01
  0.33333E+00  0.10000E+01 -0.81574E+00  0.19576E+01
  0.33333E+00  0.10000E+01 -0.51760E+00  0.19475E+01
  0.33333E+00  0.10000E+01 -0.33333E+00  0.20313E+01
  0.51760E+00  0.33333E+00 -0.10000E+01  0.16674E+01
  0.51760E+00  0.33333E+00 -0.81574E+00  0.19441E+01
  0.51760E+00  0.33333E+00 -0.51760E+00  0.20348E+01
  0.51760E+00  0.33333E+00 -0.33333E+00  0.19576E+01
  0.51760E+00  0.51760E+00 -0.10000E+01  0.19441E+01
  0.51760E+00  0.51760E+00 -0.81574E+00  0.20279E+01
  0.51760E+00  0.51760E+00 -0.51760E+00  0.19827E+01
  0.51760E+00  0.51760E+00 -0.33333E+00  0.19392E+01
  0.51760E+00  0.81574E+00 -0.10000E+01  0.20348E+01
  0.51760E+00  0.81574E+00 -0.81574E+00  0.19827E+01
  0.51760E+00  0.81574E+00 -0.51760E+00  0.19843E+01
  0.51760E+00  0.81574E+00 -0.33333E+00  0.20285E+01
  0.51760E+00  0.10000E+01 -0.10000E+01  0.19576E+01
  0.51760E+00  0.10000E+01 -0.81574E+00  0.19392E+01
  0.51760E+00  0.10000E+01 -0.51760E+00  0.20285E+01
  0.51760E+00  0.10000E+01 -0.33333E+00  0.20961E+01
  0.81574E+00  0.33333E+00 -0.10000E+01  0.20611E+01
  0.81574E+00  0.33333E+00 -0.81574E+00  0.20348E+01
  0.81574E+00  0.33333E+00 -0.51760E+00  0.19497E+01
  0.81574E+00  0.33333E+00 -0.33333E+00  0.19475E+01
  0.81574E+00  0.51760E+00 -0.10000E+01  0.20348E+01
  0.81574E+00  0.51760E+00 -0.81574E+00  0.19827E+01
  0.81574E+00  0.51760E+00 -0.51760E+00  0.19843E+01
  0.81574E+00  0.51760E+00 -0.33333E+00  0.20285E+01
  0.81574E+00  0.81574E+00 -0.10000E+01  0.19497E+01
  0.81574E+00  0.81574E+00 -0.81574E+00  0.19843E+01