 TITLE = "varsolution.tec"
 VARIABLES = "x","y","z","var"
 ZONE I =           4 ,J=           4 ,K=           4 ,F=POINT
 -0.10000E+01 -0.10000E+01 -0.10000E+01  0.15478E+01
 -0.10000E+01 -0.10000E+01 -0.81574E+00  0.16434E+01
 -0.10000E+01 -0.10000E+01 -0.51760E+00  0.20063E+01
 -0.10000E+01 -0.10000E+01 -0.33333E+00  0.23295E+01
 -0.10000E+01 -0.81574E+00 -0.10000E+01  0.16434E+01
 -0.10000E+01 -0.81574E+00 -0.81574E+00  0.11363E+01
 -0.10000E+01 -0.81574E+00 -0.51760E+00  0.15348E+01
 -0.10000E+01 -0.81574E+00 -0.33333E+00  0.20427E+01
 -0.10000E+01 -0.51760E+00 -0.10000E+01  0.20063E+01
 -0.10000E+01 -0.51760E+00 -0.81574E+00  0.15348E+01
 -0.10000E+01 -0.51760E+00 -0.51760E+00  0.16127E+01
 -0.10000E+01 -0.51760E+00 -0.33333E+00  0.18787E+01
 -0.10000E+01 -0.33333E+00 -0.10000E+01  0.23295E+01
 -0.10000E+01 -0.33333E+00 -0.81574E+00  0.20427E+01
 -0.10000E+01 -0.33333E+00 -0.51760E+00  0.18787E+01
 -0.10000E+01 -0.33333E+00 -0.33333E+00  0.19494E+01
 -0.81574E+00 -0.10000E+01 -0.10000E+01  0.16434E+01
 -0.81574E+00 -0.10000E+01 -0.81574E+00  0.11363E+01
 -0.81574E+00 -0.10000E+01 -0.51760E+00  0.15348E+01
 -0.81574E+00 -0.10000E+01 -0.33333E+00  0.20427E+01
 -0.81574E+00 -0.81574E+00 -0.10000E+01  0.11363E+01
 -0.81574E+00 -0.81574E+00 -0.81574E+00  0.13727E+01
 -0.81574E+00 -0.81574E+00 -0.51760E+00  0.20789E+01
 -0.81574E+00 -0.81574E+00 -0.33333E+00  0.23275E+01
 -0.81574E+00 -0.51760E+00 -0.10000E+01  0.15348E+01
 -0.81574E+00 -0.51760E+00 -0.81574E+00  0.20789E+01
 -0.81574E+00 -0.51760E+00 -0.51760E+00  0.23632E+01
 -0.81574E+00 -0.51760E+00 -0.33333E+00  0.22942E+01
 -0.81574E+00 -0.33333E+00 -0.10000E+01  0.20427E+01
 -0.81574E+00 -0.33333E+00 -0.81574E+00  0.23275E+01
 -0.81574E+00 -0.33333E+00 -0.51760E+00  0.22942E+01
 -0.81574E+00 -0.33333E+00 -0.33333E+00  0.21887E+01
 -0.51760E+00 -0.10000E+01 -0.10000E+01  0.20063E+01
 -0.51760E+00 -0.10000E+01 -0.81574E+00  0.15348E+01
 -0.51760E+00 -0.10000E+01 -0.51760E+00  0.16127E+01
 -0.51760E+00 -0.10000E+01 -0.33333E+00  0.18787E+01
 -0.51760E+00 -0.81574E+00 -0.10000E+01  0.15348E+01
 -0.51760E+00 -0.81574E+00 -0.81574E+00  0.20789E+01
 -0.51760E+00 -0.81574E+00 -0.51760E+00  0.23632E+01
 -0.51760E+00 -0.81574E+00 -0.33333E+00  0.22942E+01
 -0.51760E+00 -0.51760E+00 -0.10000E+01  0.16127E+01
 -0.51760E+00 -0.51760E+00 -0.81574E+00  0.23632E+01
 -0.51760E+00 -0.51760E+00 -0.51760E+00  0.25900E+01
 -0.51760E+00 -0.51760E+00 -0.33333E+00  0.23703E+01
 -0.51760E+00 -0.33333E+00 -0.10000E+01  0.18787E+01
 -0.51760E+00 -0.33333E+00 -0.81574E+00  0.22942E+01
 -0.51760E+00 -0.33333E+00 -0.51760E+00  0.23703E+01
 -0.51760E+00 -0.33333E+00 -0.33333E+00  0.21962E+01
 -0.33333E+00 -0.10000E+01 -0.10000E+01  0.23295E+01
 -0.33333E+00 -0.10000E+01 -0.81574E+00  0.20427E+01
 -0.33333E+00 -0.10000E+01 -0.51760E+00  0.18787E+01
 -0.33333E+00 -0.10000E+01 -0.33333E+00  0.19494E+01
 -0.33333E+00 -0.81574E+00 -0.10000E+01  0.20427E+01
 -0.33333E+00 -0.81574E+00 -0.81574E+00  0.23275E+01
 -0.33333E+00 -0.81574E+00 -0.51760E+00  0.22942E+01
 -0.33333E+00 -0.81574E+00 -0.33333E+00  0.21887E+01
 -0.33333E+00 -0.51760E+00 -0.10000E+01  0.18787E+01
 -0.33333E+00 -0.51760E+00 -0.81574E+00  0.22942E+01
 -0.33333E+00 -0.51760E+00 -0.51760E+00  0.23703E+01
 -0.33333E+00 -0.51760E+00 -0.33333E+00  0.21962E+01
 -0.33333E+00 -0.33333E+00 -0.10000E+01  0.19494E+01
 -0.33333E+00 -0.33333E+00 -0.81574E+00  0.21887E+01
 -0.33333E+00 -0.33333E+00 -0.51760E+00  0.21962E+01
 -0.33333E+00 -0.33333E+00 -0.33333E+00  0.20411E+01
 ZONE I =           4 ,J=           4 ,K=           4 ,F=POINT
 -0.33333E+00 -0.10000E+01 -0.10000E+01  0.34900E+01
 -0.33333E+00 -0.10000E+01 -0.81574E+00  0.23412E+01
 -0.33333E+00 -0.10000E+01 -0.51760E+00  0.17433E+01
 -0.33333E+00 -0.10000E+01 -0.33333E+00  0.20219E+01
 -0.33333E+00 -0.81574E+00 -0.10000E+01  0.23412E+01
 -0.33333E+00 -0.81574E+00 -0.81574E+00  0.21940E+01
 -0.33333E+00 -0.81574E+00 -0.51760E+00  0.22400E+01
 -0.33333E+00 -0.81574E+00 -0.33333E+00  0.23611E+01
 -0.33333E+00 -0.51760E+00 -0.10000E+01  0.17433E+01
 -0.33333E+00 -0.51760E+00 -0.81574E+00  0.22400E+01
 -0.33333E+00 -0.51760E+00 -0.51760E+00  0.23348E+01
 -0.33333E+00 -0.51760E+00 -0.33333E+00  0.21535E+01
 -0.33333E+00 -0.33333E+00 -0.10000E+01  0.20219E+01
 -0.33333E+00 -0.33333E+00 -0.81574E+00  0.23611E+01
 -0.33333E+00 -0.33333E+00 -0.51760E+00  0.21535E+01
 -0.33333E+00 -0.33333E+00 -0.33333E+00  0.18923E+01
 -0.14907E+00 -0.10000E+01 -0.10000E+01  0.23412E+01
 -0.14907E+00 -0.10000E+01 -0.81574E+00  0.21940E+01
 -0.14907E+00 -0.10000E+01 -0.51760E+00  0.22400E+01
 -0.14907E+00 -0.10000E+01 -0.33333E+00  0.23611E+01
 -0.14907E+00 -0.81574E+00 -0.10000E+01  0.21940E+01
 -0.14907E+00 -0.81574E+00 -0.81574E+00  0.21750E+01
 -0.14907E+00 -0.81574E+00 -0.51760E+00  0.22068E+01
 -0.14907E+00 -0.81574E+00 -0.33333E+00  0.22046E+01
 -0.14907E+00 -0.51760E+00 -0.10000E+01  0.22400E+01
 -0.14907E+00 -0.51760E+00 -0.81574E+00  0.22068E+01
 -0.14907E+00 -0.51760E+00 -0.51760E+00  0.19937E+01
 -0.14907E+00 -0.51760E+00 -0.33333E+00  0.18716E+01
 -0.14907E+00 -0.33333E+00 -0.10000E+01  0.23611E+01
 -0.14907E+00 -0.33333E+00 -0.81574E+00  0.22046E+01
 -0.14907E+00 -0.33333E+00 -0.51760E+00  0.18716E+01
 -0.14907E+00 -0.33333E+00 -0.33333E+00  0.17399E+01
  0.14907E+00 -0.10000E+01 -0.10000E+01  0.17433E+01
  0.14907E+00 -0.10000E+01 -0.81574E+00  0.22400E+01
  0.14907E+00 -0.10000E+01 -0.51760E+00  0.23348E+01
  0.14907E+00 -0.10000E+01 -0.33333E+00  0.21535E+01
  0.14907E+00 -0.81574E+00 -0.10000E+01  0.22400E+01
  0.14907E+00 -0.81574E+00 -0.81574E+00  0.22068E+01
  0.14907E+00 -0.81574E+00 -0.51760E+00  0.19937E+01
  0.14907E+00 -0.81574E+00 -0.33333E+00  0.18716E+01
  0.14907E+00 -0.51760E+00 -0.10000E+01  0.23348E+01
  0.14907E+00 -0.51760E+00 -0.81574E+00  0.19937E+01
  0.14907E+00 -0.51760E+00 -0.51760E+00  0.17911E+01
  0.14907E+00 -0.51760E+00 -0.33333E+00  0.17940E+01
  0.14907E+00 -0.33333E+00 -0.10000E+01  0.21535E+01
  0.14907E+00 -0.33333E+00 -0.81574E+00  0.18716E+01
  0.14907E+00 -0.33333E+00 -0.51760E+00  0.17940E+01
  0.14907E+00 -0.33333E+00 -0.33333E+00  0.18512E+01
  0.33333E+00 -0.10000E+01 -0.10000E+01  0.20219E+01
  0.33333E+00 -0.10000E+01 -0.81574E+00  0.23611E+01
  0.33333E+00 -0.10000E+01 -0.51760E+00  0.21535E+01
  0.33333E+00 -0.10000E+01 -0.33333E+00  0.18923E+01
  0.33333E+00 -0.81574E+00 -0.10000E+01  0.23611E+01
  0.33333E+00 -0.81574E+00 -0.81574E+00  0.22046E+01
  0.33333E+00 -0.81574E+00 -0.51760E+00  0.18716E+01
  0.33333E+00 -0.81574E+00 -0.33333E+00  0.17399E+01
  0.33333E+00 -0.51760E+00 -0.10000E+01  0.21535E+01
  0.33333E+00 -0.51760E+00 -0.81574E+00  0.18716E+01
  0.33333E+00 -0.51760E+00 -0.51760E+00  0.17940E+01
  0.33333E+00 -0.51760E+00 -0.33333E+00  0.18512E+01
  0.33333E+00 -0.33333E+00 -0.10000E+01  0.18923E+01
  0.33333E+00 -0.33333E+00 -0.81574E+00  0.17399E+01
  0.33333E+00 -0.33333E+00 -0.51760E+00  0.18512E+01
  0.33333E+00 -0.33333E+00 -0.33333E+00  0.19874E+01
 ZONE I =           4 ,J=           4 ,K=           4 ,F=POINT
  0.33333E+00 -0.10000E+01 -0.10000E+01  0.29090E+01
  0.33333E+00 -0.10000E+01 -0.81574E+00  0.24623E+01
  0.33333E+00 -0.10000E+01 -0.51760E+00  0.18298E+01
  0.33333E+00 -0.10000E+01 -0.33333E+00  0.16726E+01
  0.33333E+00 -0.81574E+00 -0.10000E+01  0.24623E+01
  0.33333E+00 -0.81574E+00 -0.81574E+00  0.24694E+01
  0.33333E+00 -0.81574E+00 -0.51760E+00  0.21734E+01
  0.33333E+00 -0.81574E+00 -0.33333E+00  0.18694E+01
  0.33333E+00 -0.51760E+00 -0.10000E+01  0.18298E+01
  0.33333E+00 -0.51760E+00 -0.81574E+00  0.21734E+01
  0.33333E+00 -0.51760E+00 -0.51760E+00  0.21958E+01
  0.33333E+00 -0.51760E+00 -0.33333E+00  0.20134E+01
  0.33333E+00 -0.33333E+00 -0.10000E+01  0.16726E+01
  0.33333E+00 -0.33333E+00 -0.81574E+00  0.18694E+01
  0.33333E+00 -0.33333E+00 -0.51760E+00  0.20134E+01
  0.33333E+00 -0.33333E+00 -0.33333E+00  0.20668E+01
  0.51760E+00 -0.10000E+01 -0.10000E+01  0.24623E+01
  0.51760E+00 -0.10000E+01 -0.81574E+00  0.24694E+01
  0.51760E+00 -0.10000E+01 -0.51760E+00  0.21734E+01
  0.51760E+00 -0.10000E+01 -0.33333E+00  0.18694E+01
  0.51760E+00 -0.81574E+00 -0.10000E+01  0.24694E+01
  0.51760E+00 -0.81574E+00 -0.81574E+00  0.22961E+01
  0.51760E+00 -0.81574E+00 -0.51760E+00  0.18380E+01
  0.51760E+00 -0.81574E+00 -0.33333E+00  0.16078E+01
  0.51760E+00 -0.51760E+00 -0.10000E+01  0.21734E+01
  0.51760E+00 -0.51760E+00 -0.81574E+00  0.18380E+01
  0.51760E+00 -0.51760E+00 -0.51760E+00  0.16055E+01
  0.51760E+00 -0.51760E+00 -0.33333E+00  0.17018E+01
  0.51760E+00 -0.33333E+00 -0.10000E+01  0.18694E+01
  0.51760E+00 -0.33333E+00 -0.81574E+00  0.16078E+01
  0.51760E+00 -0.33333E+00 -0.51760E+00  0.17018E+01
  0.51760E+00 -0.33333E+00 -0.33333E+00  0.19633E+01
  0.81574E+00 -0.10000E+01 -0.10000E+01  0.18298E+01
  0.81574E+00 -0.10000E+01 -0.81574E+00  0.21734E+01
  0.81574E+00 -0.10000E+01 -0.51760E+00  0.21958E+01
  0.81574E+00 -0.10000E+01 -0.33333E+00  0.20134E+01
  0.81574E+00 -0.81574E+00 -0.10000E+01  0.21734E+01
  0.81574E+00 -0.81574E+00 -0.81574E+00  0.18380E+01
  0.81574E+00 -0.81574E+00 -0.51760E+00  0.16055E+01
  0.81574E+00 -0.81574E+00 -0.33333E+00  0.17018E+01
  0.81574E+00 -0.51760E+00 -0.10000E+01  0.21958E+01
  0.81574E+00 -0.51760E+00 -0.81574E+00  0.16055E+01
  0.81574E+00 -0.51760E+00 -0.51760E+00  0.15020E+01
  0.81574E+00 -0.51760E+00 -0.33333E+00  0.17877E+01
  0.81574E+00 -0.33333E+00 -0.10000E+01  0.20134E+01
  0.81574E+00 -0.33333E+00 -0.81574E+00  0.17018E+01
  0.81574E+00 -0.33333E+00 -0.51760E+00  0.17877E+01
  0.81574E+00 -0.33333E+00 -0.33333E+00  0.20034E+01
  0.10000E+01 -0.10000E+01 -0.10000E+01  0.16726E+01
  0.10000E+01 -0.10000E+01 -0.81574E+00  0.18694E+01
  0.10000E+01 -0.10000E+01 -0.51760E+00  0.20134E+01
  0.10000E+01 -0.10000E+01 -0.33333E+00  0.20668E+01
  0.10000E+01 -0.81574E+00 -0.10000E+01  0.18694E+01
  0.10000E+01 -0.81574E+00 -0.81574E+00  0.16078E+01
  0.10000E+01 -0.81574E+00 -0.51760E+00  0.17018E+01
  0.10000E+01 -0.81574E+00 -0.33333E+00  0.19633E+01
  0.10000E+01 -0.51760E+00 -0.10000E+01  0.20134E+01
  0.10000E+01 -0.51760E+00 -0.81574E+00  0.17018E+01
  0.10000E+01 -0.51760E+00 -0.51760E+00  0.17877E+01
  0.10000E+01 -0.51760E+00 -0.33333E+00  0.20034E+01
  0.10000E+01 -0.33333E+00 -0.10000E+01  0.20668E+01
  0.10000E+01 -0.33333E+00 -0.81574E+00  0.19633E+01
  0.10000E+01 -0.33333E+00 -0.51760E+00  0.20034E+01
  0.10000E+01 -0.33333E+00 -0.33333E+00  0.20632E+01
 ZONE I =           4 ,J=           4 ,K=           4 ,F=POINT
 -0.10000E+01 -0.33333E+00 -0.10000E+01  0.34900E+01
 -0.10000E+01 -0.33333E+00 -0.81574E+00  0.23412E+01
 -0.10000E+01 -0.33333E+00 -0.51760E+00  0.17433E+01
 -0.10000E+01 -0.33333E+00 -0.33333E+00  0.20219E+01
 -0.10000E+01 -0.14907E+00 -0.10000E+01  0.23412E+01
 -0.10000E+01 -0.14907E+00 -0.81574E+00  0.21940E+01
 -0.10000E+01 -0.14907E+00 -0.51760E+00  0.22400E+01
 -0.10000E+01 -0.14907E+00 -0.33333E+00  0.23611E+01
 -0.10000E+01  0.14907E+00 -0.10000E+01  0.17433E+01
 -0.10000E+01  0.14907E+00 -0.81574E+00  0.22400E+01
 -0.10000E+01  0.14907E+00 -0.51760E+00  0.23348E+01
 -0.10000E+01  0.14907E+00 -0.33333E+00  0.21535E+01
 -0.10000E+01  0.33333E+00 -0.10000E+01  0.20219E+01
 -0.10000E+01  0.33333E+00 -0.81574E+00  0.23611E+01
 -0.10000E+01  0.33333E+00 -0.51760E+00  0.21535E+01
 -0.10000E+01  0.33333E+00 -0.33333E+00  0.18923E+01
 -0.81574E+00 -0.33333E+00 -0.10000E+01  0.23412E+01
 -0.81574E+00 -0.33333E+00 -0.81574E+00  0.21940E+01
 -0.81574E+00 -0.33333E+00 -0.51760E+00  0.22400E+01
 -0.81574E+00 -0.33333E+00 -0.33333E+00  0.23611E+01
 -0.81574E+00 -0.14907E+00 -0.10000E+01  0.21940E+01
 -0.81574E+00 -0.14907E+00 -0.81574E+00  0.21750E+01
 -0.81574E+00 -0.14907E+00 -0.51760E+00  0.22068E+01
 -0.81574E+00 -0.14907E+00 -0.33333E+00  0.22046E+01
 -0.81574E+00  0.14907E+00 -0.10000E+01  0.22400E+01
 -0.81574E+00  0.14907E+00 -0.81574E+00  0.22068E+01
 -0.81574E+00  0.14907E+00 -0.51760E+00  0.19937E+01
 -0.81574E+00  0.14907E+00 -0.33333E+00  0.18716E+01
 -0.81574E+00  0.33333E+00 -0.10000E+01  0.23611E+01
 -0.81574E+00  0.33333E+00 -0.81574E+00  0.22046E+01
 -0.81574E+00  0.33333E+00 -0.51760E+00  0.18716E+01
 -0.81574E+00  0.33333E+00 -0.33333E+00  0.17399E+01
 -0.51760E+00 -0.33333E+00 -0.10000E+01  0.17433E+01
 -0.51760E+00 -0.33333E+00 -0.81574E+00  0.22400E+01
 -0.51760E+00 -0.33333E+00 -0.51760E+00  0.23348E+01
 -0.51760E+00 -0.33333E+00 -0.33333E+00  0.21535E+01
 -0.51760E+00 -0.14907E+00 -0.10000E+01  0.22400E+01
 -0.51760E+00 -0.14907E+00 -0.81574E+00  0.22068E+01
 -0.51760E+00 -0.14907E+00 -0.51760E+00  0.19937E+01
 -0.51760E+00 -0.14907E+00 -0.33333E+00  0.18716E+01
 -0.51760E+00  0.14907E+00 -0.10000E+01  0.23348E+01
 -0.51760E+00  0.14907E+00 -0.81574E+00  0.19937E+01
 -0.51760E+00  0.14907E+00 -0.51760E+00  0.17911E+01
 -0.51760E+00  0.14907E+00 -0.33333E+00  0.17940E+01
 -0.51760E+00  0.33333E+00 -0.10000E+01  0.21535E+01
 -0.51760E+00  0.33333E+00 -0.81574E+00  0.18716E+01
 -0.51760E+00  0.33333E+00 -0.51760E+00  0.17940E+01
 -0.51760E+00  0.33333E+00 -0.33333E+00  0.18512E+01
 -0.33333E+00 -0.33333E+00 -0.10000E+01  0.20219E+01
 -0.33333E+00 -0.33333E+00 -0.81574E+00  0.23611E+01
 -0.33333E+00 -0.33333E+00 -0.51760E+00  0.21535E+01
 -0.33333E+00 -0.33333E+00 -0.33333E+00  0.18923E+01
 -0.33333E+00 -0.14907E+00 -0.10000E+01  0.23611E+01
 -0.33333E+00 -0.14907E+00 -0.81574E+00  0.22046E+01
 -0.33333E+00 -0.14907E+00 -0.51760E+00  0.18716E+01
 -0.33333E+00 -0.14907E+00 -0.33333E+00  0.17399E+01
 -0.33333E+00  0.14907E+00 -0.10000E+01  0.21535E+01
 -0.33333E+00  0.14907E+00 -0.81574E+00  0.18716E+01
 -0.33333E+00  0.14907E+00 -0.51760E+00  0.17940E+01
 -0.33333E+00  0.14907E+00 -0.33333E+00  0.18512E+01
 -0.33333E+00  0.33333E+00 -0.10000E+01  0.18923E+01
 -0.33333E+00  0.33333E+00 -0.81574E+00  0.17399E+01
 -0.33333E+00  0.33333E+00 -0.51760E+00  0.18512E+01
 -0.33333E+00  0.33333E+00 -0.33333E+00  0.19874E+01
 ZONE I =           4 ,J=           4 ,K=           4 ,F=POINT
 -0.33333E+00 -0.33333E+00 -0.10000E+01  0.29090E+01
 -0.33333E+00 -0.33333E+00 -0.81574E+00  0.24623E+01
 -0.33333E+00 -0.33333E+00 -0.51760E+00  0.18298E+01
 -0.33333E+00 -0.33333E+00 -0.33333E+00  0.16726E+01
 -0.33333E+00 -0.14907E+00 -0.10000E+01  0.24623E+01
 -0.33333E+00 -0.14907E+00 -0.81574E+00  0.24694E+01
 -0.33333E+00 -0.14907E+00 -0.51760E+00  0.21734E+01
 -0.33333E+00 -0.14907E+00 -0.33333E+00  0.18694E+01
 -0.33333E+00  0.14907E+00 -0.10000E+01  0.18298E+01
 -0.33333E+00  0.14907E+00 -0.81574E+00  0.21734E+01
 -0.33333E+00  0.14907E+00 -0.51760E+00  0.21958E+01
 -0.33333E+00  0.14907E+00 -0.33333E+00  0.20134E+01
 -0.33333E+00  0.33333E+00 -0.10000E+01  0.16726E+01
 -0.33333E+00  0.33333E+00 -0.81574E+00  0.18694E+01
 -0.33333E+00  0.33333E+00 -0.51760E+00  0.20134E+01
 -0.33333E+00  0.33333E+00 -0.33333E+00  0.20668E+01
 -0.14907E+00 -0.33333E+00 -0.10000E+01  0.24623E+01
 -0.14907E+00 -0.33333E+00 -0.81574E+00  0.24694E+01
 -0.14907E+00 -0.33333E+00 -0.51760E+00  0.21734E+01
 -0.14907E+00 -0.33333E+00 -0.33333E+00  0.18694E+01
 -0.14907E+00 -0.14907E+00 -0.10000E+01  0.24694E+01
 -0.14907E+00 -0.14907E+00 -0.81574E+00  0.22961E+01
 -0.14907E+00 -0.14907E+00 -0.51760E+00  0.18380E+01
 -0.14907E+00 -0.14907E+00 -0.33333E+00  0.16078E+01
 -0.14907E+00  0.14907E+00 -0.10000E+01  0.21734E+01
 -0.14907E+00  0.14907E+00 -0.81574E+00  0.18380E+01
 -0.14907E+00  0.14907E+00 -0.51760E+00  0.16055E+01
 -0.14907E+00  0.14907E+00 -0.33333E+00  0.17018E+01
 -0.14907E+00  0.33333E+00 -0.10000E+01  0.18694E+01
 -0.14907E+00  0.33333E+00 -0.81574E+00  0.16078E+01
 -0.14907E+00  0.33333E+00 -0.51760E+00  0.17018E+01
 -0.14907E+00  0.33333E+00 -0.33333E+00  0.19633E+01
  0.14907E+00 -0.33333E+00 -0.10000E+01  0.18298E+01
  0.14907E+00 -0.33333E+00 -0.81574E+00  0.21734E+01
  0.14907E+00 -0.33333E+00 -0.51760E+00  0.21958E+01
  0.14907E+00 -0.33333E+00 -0.33333E+00  0.20134E+01
  0.14907E+00 -0.14907E+00 -0.10000E+01  0.21734E+01
  0.14907E+00 -0.14907E+00 -0.81574E+00  0.18380E+01
  0.14907E+00 -0.14907E+00 -0.51760E+00  0.16055E+01
  0.14907E+00 -0.14907E+00 -0.33333E+00  0.17018E+01
  0.14907E+00  0.14907E+00 -0.10000E+01  0.21958E+01
  0.14907E+00  0.14907E+00 -0.81574E+00  0.16055E+01
  0.14907E+00  0.14907E+00 -0.51760E+00  0.15020E+01
  0.14907E+00  0.14907E+00 -0.33333E+00  0.17877E+01
  0.14907E+00  0.33333E+00 -0.10000E+01  0.20134E+01
  0.14907E+00  0.33333E+00 -0.81574E+00  0.17018E+01
  0.14907E+00  0.33333E+00 -0.51760E+00  0.17877E+01
  0.14907E+00  0.33333E+00 -0.33333E+00  0.20034E+01
  0.33333E+00 -0.33333E+00 -0.10000E+01  0.16726E+01
  0.33333E+00 -0.33333E+00 -0.81574E+00  0.18694E+01
  0.33333E+00 -0.33333E+00 -0.51760E+00  0.20134E+01
  0.33333E+00 -0.33333E+00 -0.33333E+00  0.20668E+01
  0.33333E+00 -0.14907E+00 -0.10000E+01  0.18694E+01
  0.33333E+00 -0.14907E+00 -0.81574E+00  0.16078E+01
  0.33333E+00 -0.14907E+00 -0.51760E+00  0.17018E+01
  0.33333E+00 -0.14907E+00 -0.33333E+00  0.19633E+01
  0.33333E+00  0.14907E+00 -0.10000E+01  0.20134E+01
  0.33333E+00  0.14907E+00 -0.81574E+00  0.17018E+01
  0.33333E+00  0.14907E+00 -0.51760E+00  0.17877E+01
  0.33333E+00  0.14907E+00 -0.33333E+00  0.20034E+01
  0.33333E+00  0.33333E+00 -0.10000E+01  0.20668E+01
  0.33333E+00  0.33333E+00 -0.81574E+00  0.19633E+01
  0.33333E+00  0.33333E+00 -0.51760E+00  0.20034E+01
  0.33333E+00  0.33333E+00 -0.33333E+00  0.20632E+01
 ZONE I =           4 ,J=           4 ,K=           4 ,F=POINT
  0.33333E+00 -0.33333E+00 -0.10000E+01  0.15478E+01
  0.33333E+00 -0.33333E+00 -0.81574E+00  0.16434E+01
  0.33333E+00 -0.33333E+00 -0.51760E+00  0.20063E+01
  0.33333E+00 -0.33333E+00 -0.33333E+00  0.23295E+01
  0.33333E+00 -0.14907E+00 -0.10000E+01  0.16434E+01
  0.33333E+00 -0.14907E+00 -0.81574E+00  0.11363E+01
  0.33333E+00 -0.14907E+00 -0.51760E+00  0.15348E+01
  0.33333E+00 -0.14907E+00 -0.33333E+00  0.20427E+01
  0.33333E+00  0.14907E+00 -0.10000E+01  0.20063E+01
  0.33333E+00  0.14907E+00 -0.81574E+00  0.15348E+01
  0.33333E+00  0.14907E+00 -0.51760E+00  0.16127E+01
  0.33333E+00  0.14907E+00 -0.33333E+00  0.18787E+01
  0.33333E+00  0.33333E+00 -0.10000E+01  0.23295E+01
  0.33333E+00  0.33333E+00 -0.81574E+00  0.20427E+01
  0.33333E+00  0.33333E+00 -0.51760E+00  0.18787E+01
  0.33333E+00  0.33333E+00 -0.33333E+00  0.19494E+01
  0.51760E+00 -0.33333E+00 -0.10000E+01  0.16434E+01
  0.51760E+00 -0.33333E+00 -0.81574E+00  0.11363E+01
  0.51760E+00 -0.33333E+00 -0.51760E+00  0.15348E+01
  0.51760E+00 -0.33333E+00 -0.33333E+00  0.20427E+01
  0.51760E+00 -0.14907E+00 -0.10000E+01  0.11363E+01
  0.51760E+00 -0.14907E+00 -0.81574E+00  0.13727E+01
  0.51760E+00 -0.14907E+00 -0.51760E+00  0.20789E+01
  0.51760E+00 -0.14907E+00 -0.33333E+00  0.23275E+01
  0.51760E+00  0.14907E+00 -0.10000E+01  0.15348E+01
  0.51760E+00  0.14907E+00 -0.81574E+00  0.20789E+01
  0.51760E+00  0.14907E+00 -0.51760E+00  0.23632E+01
  0.51760E+00  0.14907E+00 -0.33333E+00  0.22942E+01
  0.51760E+00  0.33333E+00 -0.10000E+01  0.20427E+01
  0.51760E+00  0.33333E+00 -0.81574E+00  0.23275E+01
  0.51760E+00  0.33333E+00 -0.51760E+00  0.22942E+01
  0.51760E+00  0.33333E+00 -0.33333E+00  0.21887E+01
  0.81574E+00 -0.33333E+00 -0.10000E+01  0.20063E+01
  0.81574E+00 -0.33333E+00 -0.81574E+00  0.15348E+01
  0.81574E+00 -0.33333E+00 -0.51760E+00  0.16127E+01
  0.81574E+00 -0.33333E+00 -0.33333E+00  0.18787E+01
  0.81574E+00 -0.14907E+00 -0.10000E+01  0.15348E+01
  0.81574E+00 -0.14907E+00 -0.81574E+00  0.20789E+01
  0.81574E+00 -0.14907E+00 -0.51760E+00  0.23632E+01
  0.81574E+00 -0.14907E+00 -0.33333E+00  0.22942E+01
  0.81574E+00  0.14907E+00 -0.10000E+01  0.16127E+01
  0.81574E+00  0.14907E+00 -0.81574E+00  0.23632E+01
  0.81574E+00  0.14907E+00 -0.51760E+00  0.25900E+01
  0.81574E+00  0.14907E+00 -0.33333E+00  0.23703E+01
  0.81574E+00  0.33333E+00 -0.10000E+01  0.18787E+01
  0.81574E+00  0.33333E+00 -0.81574E+00  0.22942E+01
  0.81574E+00  0.33333E+00 -0.51760E+00  0.23703E+01
  0.81574E+00  0.33333E+00 -0.33333E+00  0.21962E+01
  0.10000E+01 -0.33333E+00 -0.10000E+01  0.23295E+01
  0.10000E+01 -0.33333E+00 -0.81574E+00  0.20427E+01
  0.10000E+01 -0.33333E+00 -0.51760E+00  0.18787E+01
  0.10000E+01 -0.33333E+00 -0.33333E+00  0.19494E+01
  0.10000E+01 -0.14907E+00 -0.10000E+01  0.20427E+01
  0.10000E+01 -0.14907E+00 -0.81574E+00  0.23275E+01
  0.10000E+01 -0.14907E+00 -0.51760E+00  0.22942E+01
  0.10000E+01 -0.14907E+00 -0.33333E+00  0.21887E+01
  0.10000E+01  0.14907E+00 -0.10000E+01  0.18787E+01
  0.10000E+01  0.14907E+00 -0.81574E+00  0.22942E+01
  0.10000E+01  0.14907E+00 -0.51760E+00  0.23703E+01
  0.10000E+01  0.14907E+00 -0.33333E+00  0.21962E+01
  0.10000E+01  0.33333E+00 -0.10000E+01  0.19494E+01
  0.10000E+01  0.33333E+00 -0.81574E+00  0.21887E+01
  0.10000E+01  0.33333E+00 -0.51760E+00  0.21962E+01
  0.10000E+01  0.33333E+00 -0.33333E+00  0.20411E+01
 ZONE I =           4 ,J=           4 ,K=           4 ,F=POINT
 -0.10000E+01  0.33333E+00 -0.10000E+01  0.29090E+01
 -0.10000E+01  0.33333E+00 -0.81574E+00  0.24623E+01
 -0.10000E+01  0.33333E+00 -0.51760E+00  0.18298E+01
 -0.10000E+01  0.33333E+00 -0.33333E+00  0.16726E+01
 -0.10000E+01  0.51760E+00 -0.10000E+01  0.24623E+01
 -0.10000E+01  0.51760E+00 -0.81574E+00  0.24694E+01
 -0.10000E+01  0.51760E+00 -0.51760E+00  0.21734E+01
 -0.10000E+01  0.51760E+00 -0.33333E+00  0.18694E+01
 -0.10000E+01  0.81574E+00 -0.10000E+01  0.18298E+01
 -0.10000E+01  0.81574E+00 -0.81574E+00  0.21734E+01
 -0.10000E+01  0.81574E+00 -0.51760E+00  0.21958E+01
 -0.10000E+01  0.81574E+00 -0.33333E+00  0.20134E+01
 -0.10000E+01  0.10000E+01 -0.10000E+01  0.16726E+01
 -0.10000E+01  0.10000E+01 -0.81574E+00  0.18694E+01
 -0.10000E+01  0.10000E+01 -0.51760E+00  0.20134E+01
 -0.10000E+01  0.10000E+01 -0.33333E+00  0.20668E+01
 -0.81574E+00  0.33333E+00 -0.10000E+01  0.24623E+01
 -0.81574E+00  0.33333E+00 -0.81574E+00  0.24694E+01
 -0.81574E+00  0.33333E+00 -0.51760E+00  0.21734E+01
 -0.81574E+00  0.33333E+00 -0.33333E+00  0.18694E+01
 -0.81574E+00  0.51760E+00 -0.10000E+01  0.24694E+01
 -0.81574E+00  0.51760E+00 -0.81574E+00  0.22961E+01
 -0.81574E+00  0.51760E+00 -0.51760E+00  0.18380E+01
 -0.81574E+00  0.51760E+00 -0.33333E+00  0.16078E+01
 -0.81574E+00  0.81574E+00 -0.10000E+01  0.21734E+01
 -0.81574E+00  0.81574E+00 -0.81574E+00  0.18380E+01
 -0.81574E+00  0.81574E+00 -0.51760E+00  0.16055E+01
 -0.81574E+00  0.81574E+00 -0.33333E+00  0.17018E+01
 -0.81574E+00  0.10000E+01 -0.10000E+01  0.18694E+01
 -0.81574E+00  0.10000E+01 -0.81574E+00  0.16078E+01
 -0.81574E+00  0.10000E+01 -0.51760E+00  0.17018E+01
 -0.81574E+00  0.10000E+01 -0.33333E+00  0.19633E+01
 -0.51760E+00  0.33333E+00 -0.10000E+01  0.18298E+01
 -0.51760E+00  0.33333E+00 -0.81574E+00  0.21734E+01
 -0.51760E+00  0.33333E+00 -0.51760E+00  0.21958E+01
 -0.51760E+00  0.33333E+00 -0.33333E+00  0.20134E+01
 -0.51760E+00  0.51760E+00 -0.10000E+01  0.21734E+01
 -0.51760E+00  0.51760E+00 -0.81574E+00  0.18380E+01
 -0.51760E+00  0.51760E+00 -0.51760E+00  0.16055E+01
 -0.51760E+00  0.51760E+00 -0.33333E+00  0.17018E+01
 -0.51760E+00  0.81574E+00 -0.10000E+01  0.21958E+01
 -0.51760E+00  0.81574E+00 -0.81574E+00  0.16055E+01
 -0.51760E+00  0.81574E+00 -0.51760E+00  0.15020E+01
 -0.51760E+00  0.81574E+00 -0.33333E+00  0.17877E+01
 -0.51760E+00  0.10000E+01 -0.10000E+01  0.20134E+01
 -0.51760E+00  0.10000E+01 -0.81574E+00  0.17018E+01
 -0.51760E+00  0.10000E+01 -0.51760E+00  0.17877E+01
 -0.51760E+00  0.10000E+01 -0.33333E+00  0.20034E+01
 -0.33333E+00  0.33333E+00 -0.10000E+01  0.16726E+01
 -0.33333E+00  0.33333E+00 -0.81574E+00  0.18694E+01
 -0.33333E+00  0.33333E+00 -0.51760E+00  0.20134E+01
 -0.33333E+00  0.33333E+00 -0.33333E+00  0.20668E+01
 -0.33333E+00  0.51760E+00 -0.10000E+01  0.18694E+01
 -0.33333E+00  0.51760E+00 -0.81574E+00  0.16078E+01
 -0.33333E+00  0.51760E+00 -0.51760E+00  0.17018E+01
 -0.33333E+00  0.51760E+00 -0.33333E+00  0.19633E+01
 -0.33333E+00  0.81574E+00 -0.10000E+01  0.20134E+01
 -0.33333E+00  0.81574E+00 -0.81574E+00  0.17018E+01
 -0.33333E+00  0.81574E+00 -0.51760E+00  0.17877E+01
 -0.33333E+00  0.81574E+00 -0.33333E+00  0.20034E+01
 -0.33333E+00  0.10000E+01 -0.10000E+01  0.20668E+01
 -0.33333E+00  0.10000E+01 -0.81574E+00  0.19633E+01
 -0.33333E+00  0.10000E+01 -0.51760E+00  0.20034E+01
 -0.33333E+00  0.10000E+01 -0.33333E+00  0.20632E+01
 ZONE I =           4 ,J=           4 ,K=           4 ,F=POINT
 -0.33333E+00  0.33333E+00 -0.10000E+01  0.15478E+01
 -0.33333E+00  0.33333E+00 -0.81574E+00  0.16434E+01
 -0.33333E+00  0.33333E+00 -0.51760E+00  0.20063E+01
 -0.33333E+00  0.33333E+00 -0.33333E+00  0.23295E+01
 -0.33333E+00  0.51760E+00 -0.10000E+01  0.16434E+01
 -0.33333E+00  0.51760E+00 -0.81574E+00  0.11363E+01
 -0.33333E+00  0.51760E+00 -0.51760E+00  0.15348E+01
 -0.33333E+00  0.51760E+00 -0.33333E+00  0.20427E+01
 -0.33333E+00  0.81574E+00 -0.10000E+01  0.20063E+01
 -0.33333E+00  0.81574E+00 -0.81574E+00  0.15348E+01
 -0.33333E+00  0.81574E+00 -0.51760E+00  0.16127E+01
 -0.33333E+00  0.81574E+00 -0.33333E+00  0.18787E+01
 -0.33333E+00  0.10000E+01 -0.10000E+01  0.23295E+01
 -0.33333E+00  0.10000E+01 -0.81574E+00  0.20427E+01
 -0.33333E+00  0.10000E+01 -0.51760E+00  0.18787E+01
 -0.33333E+00  0.10000E+01 -0.33333E+00  0.19494E+01
 -0.14907E+00  0.33333E+00 -0.10000E+01  0.16434E+01
 -0.14907E+00  0.33333E+00 -0.81574E+00  0.11363E+01
 -0.14907E+00  0.33333E+00 -0.51760E+00  0.15348E+01
 -0.14907E+00  0.33333E+00 -0.33333E+00  0.20427E+01
 -0.14907E+00  0.51760E+00 -0.10000E+01  0.11363E+01
 -0.14907E+00  0.51760E+00 -0.81574E+00  0.13727E+01
 -0.14907E+00  0.51760E+00 -0.51760E+00  0.20789E+01
 -0.14907E+00  0.51760E+00 -0.33333E+00  0.23275E+01
 -0.14907E+00  0.81574E+00 -0.10000E+01  0.15348E+01
 -0.14907E+00  0.81574E+00 -0.81574E+00  0.20789E+01
 -0.14907E+00  0.81574E+00 -0.51760E+00  0.23632E+01
 -0.14907E+00  0.81574E+00 -0.33333E+00  0.22942E+01
 -0.14907E+00  0.10000E+01 -0.10000E+01  0.20427E+01
 -0.14907E+00  0.10000E+01 -0.81574E+00  0.23275E+01
 -0.14907E+00  0.10000E+01 -0.51760E+00  0.22942E+01
 -0.14907E+00  0.10000E+01 -0.33333E+00  0.21887E+01
  0.14907E+00  0.33333E+00 -0.10000E+01  0.20063E+01
  0.14907E+00  0.33333E+00 -0.81574E+00  0.15348E+01
  0.14907E+00  0.33333E+00 -0.51760E+00  0.16127E+01
  0.14907E+00  0.33333E+00 -0.33333E+00  0.18787E+01
  0.14907E+00  0.51760E+00 -0.10000E+01  0.15348E+01
  0.14907E+00  0.51760E+00 -0.81574E+00  0.20789E+01
  0.14907E+00  0.51760E+00 -0.51760E+00  0.23632E+01
  0.14907E+00  0.51760E+00 -0.33333E+00  0.22942E+01
  0.14907E+00  0.81574E+00 -0.10000E+01  0.16127E+01
  0.14907E+00  0.81574E+00 -0.81574E+00  0.23632E+01
  0.14907E+00  0.81574E+00 -0.51760E+00  0.25900E+01
  0.14907E+00  0.81574E+00 -0.33333E+00  0.23703E+01
  0.14907E+00  0.10000E+01 -0.10000E+01  0.18787E+01
  0.14907E+00  0.10000E+01 -0.81574E+00  0.22942E+01
  0.14907E+00  0.10000E+01 -0.51760E+00  0.23703E+01
  0.14907E+00  0.10000E+01 -0.33333E+00  0.21962E+01
  0.33333E+00  0.33333E+00 -0.10000E+01  0.23295E+01
  0.33333E+00  0.33333E+00 -0.81574E+00  0.20427E+01
  0.33333E+00  0.33333E+00 -0.51760E+00  0.18787E+01
  0.33333E+00  0.33333E+00 -0.33333E+00  0.19494E+01
  0.33333E+00  0.51760E+00 -0.10000E+01  0.20427E+01
  0.33333E+00  0.51760E+00 -0.81574E+00  0.23275E+01
  0.33333E+00  0.51760E+00 -0.51760E+00  0.22942E+01
  0.33333E+00  0.51760E+00 -0.33333E+00  0.21887E+01
  0.33333E+00  0.81574E+00 -0.10000E+01  0.18787E+01
  0.33333E+00  0.81574E+00 -0.81574E+00  0.22942E+01
  0.33333E+00  0.81574E+00 -0.51760E+00  0.23703E+01
  0.33333E+00  0.81574E+00 -0.33333E+00  0.21962E+01
  0.33333E+00  0.10000E+01 -0.10000E+01  0.19494E+01
  0.33333E+00  0.10000E+01 -0.81574E+00  0.21887E+01
  0.33333E+00  0.10000E+01 -0.51760E+00  0.21962E+01
  0.33333E+00  0.10000E+01 -0.33333E+00  0.20411E+01
 ZONE I =           4 ,J=           4 ,K=           4 ,F=POINT
  0.33333E+00  0.33333E+00 -0.10000E+01  0.34900E+01
  0.33333E+00  0.33333E+00 -0.81574E+00  0.23412E+01
  0.33333E+00  0.33333E+00 -0.51760E+00  0.17433E+01
  0.33333E+00  0.33333E+00 -0.33333E+00  0.20219E+01
  0.33333E+00  0.51760E+00 -0.10000E+01  0.23412E+01
  0.33333E+00  0.51760E+00 -0.81574E+00  0.21940E+01
  0.33333E+00  0.51760E+00 -0.51760E+00  0.22400E+01
  0.33333E+00  0.51760E+00 -0.33333E+00  0.23611E+01
  0.33333E+00  0.81574E+00 -0.10000E+01  0.17433E+01
  0.33333E+00  0.81574E+00 -0.81574E+00  0.22400E+01
  0.33333E+00  0.81574E+00 -0.51760E+00  0.23348E+01
  0.33333E+00  0.81574E+00 -0.33333E+00  0.21535E+01
  0.33333E+00  0.10000E+01 -0.10000E+01  0.20219E+01
  0.33333E+00  0.10000E+01 -0.81574E+00  0.23611E+01
  0.33333E+00  0.10000E+01 -0.51760E+00  0.21535E+01
  0.33333E+00  0.10000E+01 -0.33333E+00  0.18923E+01
  0.51760E+00  0.33333E+00 -0.10000E+01  0.23412E+01
  0.51760E+00  0.33333E+00 -0.81574E+00  0.21940E+01
  0.51760E+00  0.33333E+00 -0.51760E+00  0.22400E+01
  0.51760E+00  0.33333E+00 -0.33333E+00  0.23611E+01
  0.51760E+00  0.51760E+00 -0.10000E+01  0.21940E+01
  0.51760E+00  0.51760E+00 -0.81574E+00  0.21750E+01
  0.51760E+00  0.51760E+00 -0.51760E+00  0.22068E+01
  0.51760E+00  0.51760E+00 -0.33333E+00  0.22046E+01
  0.51760E+00  0.81574E+00 -0.10000E+01  0.22400E+01
  0.51760E+00  0.81574E+00 -0.81574E+00  0.22068E+01
  0.51760E+00  0.81574E+00 -0.51760E+00  0.19937E+01
  0.51760E+00  0.81574E+00 -0.33333E+00  0.18716E+01
  0.51760E+00  0.10000E+01 -0.10000E+01  0.23611E+01
  0.51760E+00  0.10000E+01 -0.81574E+00  0.22046E+01
  0.51760E+00  0.10000E+01 -0.51760E+00  0.18716E+01
  0.51760E+00  0.10000E+01 -0.33333E+00  0.17399E+01
  0.81574E+00  0.33333E+00 -0.10000E+01  0.17433E+01
  0.81574E+00  0.33333E+00 -0.81574E+00  0.22400E+01
  0.81574E+00  0.33333E+00 -0.51760E+00  0.23348E+01
  0.81574E+00  0.33333E+00 -0.33333E+00  0.21535E+01
  0.81574E+00  0.51760E+00 -0.10000E+01  0.22400E+01
  0.81574E+00  0.51760E+00 -0.81574E+00  0.22068E+01
  0.81574E+00  0.51760E+00 -0.51760E+00  0.19937E+01
  0.81574E+00  0.51760E+00 -0.33333E+00  0.18716E+01
  0.81574E+00  0.81574E+00 -0.10000E+01  0.23348E+01
  0.81574E+00  0.81574E+00 -0.81574E+00  0.19937E+01