 TITLE = "varsolution.tec"
 VARIABLES = "x","y","z","var"
 ZONE I =           4 ,J=           4 ,K=           4 ,F=POINT
 -0.10000E+01 -0.10000E+01 -0.10000E+01  0.19879E+01
 -0.10000E+01 -0.10000E+01 -0.81574E+00  0.24033E+01
 -0.10000E+01 -0.10000E+01 -0.51760E+00  0.22086E+01
 -0.10000E+01 -0.10000E+01 -0.33333E+00  0.19086E+01
 -0.10000E+01 -0.81574E+00 -0.10000E+01  0.24033E+01
 -0.10000E+01 -0.81574E+00 -0.81574E+00  0.22743E+01
 -0.10000E+01 -0.81574E+00 -0.51760E+00  0.19958E+01
 -0.10000E+01 -0.81574E+00 -0.33333E+00  0.18883E+01
 -0.10000E+01 -0.51760E+00 -0.10000E+01  0.22086E+01
 -0.10000E+01 -0.51760E+00 -0.81574E+00  0.19958E+01
 -0.10000E+01 -0.51760E+00 -0.51760E+00  0.19018E+01
 -0.10000E+01 -0.51760E+00 -0.33333E+00  0.19357E+01
 -0.10000E+01 -0.33333E+00 -0.10000E+01  0.19086E+01
 -0.10000E+01 -0.33333E+00 -0.81574E+00  0.18883E+01
 -0.10000E+01 -0.33333E+00 -0.51760E+00  0.19357E+01
 -0.10000E+01 -0.33333E+00 -0.33333E+00  0.19614E+01
 -0.81574E+00 -0.10000E+01 -0.10000E+01  0.24033E+01
 -0.81574E+00 -0.10000E+01 -0.81574E+00  0.22743E+01
 -0.81574E+00 -0.10000E+01 -0.51760E+00  0.19958E+01
 -0.81574E+00 -0.10000E+01 -0.33333E+00  0.18883E+01
 -0.81574E+00 -0.81574E+00 -0.10000E+01  0.22743E+01
 -0.81574E+00 -0.81574E+00 -0.81574E+00  0.21013E+01
 -0.81574E+00 -0.81574E+00 -0.51760E+00  0.19549E+01
 -0.81574E+00 -0.81574E+00 -0.33333E+00  0.19407E+01
 -0.81574E+00 -0.51760E+00 -0.10000E+01  0.19958E+01
 -0.81574E+00 -0.51760E+00 -0.81574E+00  0.19549E+01
 -0.81574E+00 -0.51760E+00 -0.51760E+00  0.19442E+01
 -0.81574E+00 -0.51760E+00 -0.33333E+00  0.19545E+01
 -0.81574E+00 -0.33333E+00 -0.10000E+01  0.18883E+01
 -0.81574E+00 -0.33333E+00 -0.81574E+00  0.19407E+01
 -0.81574E+00 -0.33333E+00 -0.51760E+00  0.19545E+01
 -0.81574E+00 -0.33333E+00 -0.33333E+00  0.19447E+01
 -0.51760E+00 -0.10000E+01 -0.10000E+01  0.22086E+01
 -0.51760E+00 -0.10000E+01 -0.81574E+00  0.19958E+01
 -0.51760E+00 -0.10000E+01 -0.51760E+00  0.19018E+01
 -0.51760E+00 -0.10000E+01 -0.33333E+00  0.19357E+01
 -0.51760E+00 -0.81574E+00 -0.10000E+01  0.19958E+01
 -0.51760E+00 -0.81574E+00 -0.81574E+00  0.19549E+01
 -0.51760E+00 -0.81574E+00 -0.51760E+00  0.19442E+01
 -0.51760E+00 -0.81574E+00 -0.33333E+00  0.19545E+01
 -0.51760E+00 -0.51760E+00 -0.10000E+01  0.19018E+01
 -0.51760E+00 -0.51760E+00 -0.81574E+00  0.19442E+01
 -0.51760E+00 -0.51760E+00 -0.51760E+00  0.19617E+01
 -0.51760E+00 -0.51760E+00 -0.33333E+00  0.19700E+01
 -0.51760E+00 -0.33333E+00 -0.10000E+01  0.19357E+01
 -0.51760E+00 -0.33333E+00 -0.81574E+00  0.19545E+01
 -0.51760E+00 -0.33333E+00 -0.51760E+00  0.19700E+01
 -0.51760E+00 -0.33333E+00 -0.33333E+00  0.19974E+01
 -0.33333E+00 -0.10000E+01 -0.10000E+01  0.19086E+01
 -0.33333E+00 -0.10000E+01 -0.81574E+00  0.18883E+01
 -0.33333E+00 -0.10000E+01 -0.51760E+00  0.19357E+01
 -0.33333E+00 -0.10000E+01 -0.33333E+00  0.19614E+01
 -0.33333E+00 -0.81574E+00 -0.10000E+01  0.18883E+01
 -0.33333E+00 -0.81574E+00 -0.81574E+00  0.19407E+01
 -0.33333E+00 -0.81574E+00 -0.51760E+00  0.19545E+01
 -0.33333E+00 -0.81574E+00 -0.33333E+00  0.19447E+01
 -0.33333E+00 -0.51760E+00 -0.10000E+01  0.19357E+01
 -0.33333E+00 -0.51760E+00 -0.81574E+00  0.19545E+01
 -0.33333E+00 -0.51760E+00 -0.51760E+00  0.19700E+01
 -0.33333E+00 -0.51760E+00 -0.33333E+00  0.19974E+01
 -0.33333E+00 -0.33333E+00 -0.10000E+01  0.19614E+01
 -0.33333E+00 -0.33333E+00 -0.81574E+00  0.19447E+01
 -0.33333E+00 -0.33333E+00 -0.51760E+00  0.19974E+01
 -0.33333E+00 -0.33333E+00 -0.33333E+00  0.20606E+01
 ZONE I =           4 ,J=           4 ,K=           4 ,F=POINT
 -0.33333E+00 -0.10000E+01 -0.10000E+01  0.13745E+01
 -0.33333E+00 -0.10000E+01 -0.81574E+00  0.16618E+01
 -0.33333E+00 -0.10000E+01 -0.51760E+00  0.20647E+01
 -0.33333E+00 -0.10000E+01 -0.33333E+00  0.21001E+01
 -0.33333E+00 -0.81574E+00 -0.10000E+01  0.16618E+01
 -0.33333E+00 -0.81574E+00 -0.81574E+00  0.19442E+01
 -0.33333E+00 -0.81574E+00 -0.51760E+00  0.20362E+01
 -0.33333E+00 -0.81574E+00 -0.33333E+00  0.19577E+01
 -0.33333E+00 -0.51760E+00 -0.10000E+01  0.20647E+01
 -0.33333E+00 -0.51760E+00 -0.81574E+00  0.20362E+01
 -0.33333E+00 -0.51760E+00 -0.51760E+00  0.19492E+01
 -0.33333E+00 -0.51760E+00 -0.33333E+00  0.19469E+01
 -0.33333E+00 -0.33333E+00 -0.10000E+01  0.21001E+01
 -0.33333E+00 -0.33333E+00 -0.81574E+00  0.19577E+01
 -0.33333E+00 -0.33333E+00 -0.51760E+00  0.19469E+01
 -0.33333E+00 -0.33333E+00 -0.33333E+00  0.20309E+01
 -0.14907E+00 -0.10000E+01 -0.10000E+01  0.16618E+01
 -0.14907E+00 -0.10000E+01 -0.81574E+00  0.19442E+01
 -0.14907E+00 -0.10000E+01 -0.51760E+00  0.20362E+01
 -0.14907E+00 -0.10000E+01 -0.33333E+00  0.19577E+01
 -0.14907E+00 -0.81574E+00 -0.10000E+01  0.19442E+01
 -0.14907E+00 -0.81574E+00 -0.81574E+00  0.20282E+01
 -0.14907E+00 -0.81574E+00 -0.51760E+00  0.19829E+01
 -0.14907E+00 -0.81574E+00 -0.33333E+00  0.19393E+01
 -0.14907E+00 -0.51760E+00 -0.10000E+01  0.20362E+01
 -0.14907E+00 -0.51760E+00 -0.81574E+00  0.19829E+01
 -0.14907E+00 -0.51760E+00 -0.51760E+00  0.19841E+01
 -0.14907E+00 -0.51760E+00 -0.33333E+00  0.20285E+01
 -0.14907E+00 -0.33333E+00 -0.10000E+01  0.19577E+01
 -0.14907E+00 -0.33333E+00 -0.81574E+00  0.19393E+01
 -0.14907E+00 -0.33333E+00 -0.51760E+00  0.20285E+01
 -0.14907E+00 -0.33333E+00 -0.33333E+00  0.20959E+01
  0.14907E+00 -0.10000E+01 -0.10000E+01  0.20647E+01
  0.14907E+00 -0.10000E+01 -0.81574E+00  0.20362E+01
  0.14907E+00 -0.10000E+01 -0.51760E+00  0.19492E+01
  0.14907E+00 -0.10000E+01 -0.33333E+00  0.19469E+01
  0.14907E+00 -0.81574E+00 -0.10000E+01  0.20362E+01
  0.14907E+00 -0.81574E+00 -0.81574E+00  0.19829E+01
  0.14907E+00 -0.81574E+00 -0.51760E+00  0.19841E+01
  0.14907E+00 -0.81574E+00 -0.33333E+00  0.20285E+01
  0.14907E+00 -0.51760E+00 -0.10000E+01  0.19492E+01
  0.14907E+00 -0.51760E+00 -0.81574E+00  0.19841E+01
  0.14907E+00 -0.51760E+00 -0.51760E+00  0.20698E+01
  0.14907E+00 -0.51760E+00 -0.33333E+00  0.20989E+01
  0.14907E+00 -0.33333E+00 -0.10000E+01  0.19469E+01
  0.14907E+00 -0.33333E+00 -0.81574E+00  0.20285E+01
  0.14907E+00 -0.33333E+00 -0.51760E+00  0.20989E+01
  0.14907E+00 -0.33333E+00 -0.33333E+00  0.20870E+01
  0.33333E+00 -0.10000E+01 -0.10000E+01  0.21001E+01
  0.33333E+00 -0.10000E+01 -0.81574E+00  0.19577E+01
  0.33333E+00 -0.10000E+01 -0.51760E+00  0.19469E+01
  0.33333E+00 -0.10000E+01 -0.33333E+00  0.20309E+01
  0.33333E+00 -0.81574E+00 -0.10000E+01  0.19577E+01
  0.33333E+00 -0.81574E+00 -0.81574E+00  0.19393E+01
  0.33333E+00 -0.81574E+00 -0.51760E+00  0.20285E+01
  0.33333E+00 -0.81574E+00 -0.33333E+00  0.20959E+01
  0.33333E+00 -0.51760E+00 -0.10000E+01  0.19469E+01
  0.33333E+00 -0.51760E+00 -0.81574E+00  0.20285E+01
  0.33333E+00 -0.51760E+00 -0.51760E+00  0.20989E+01
  0.33333E+00 -0.51760E+00 -0.33333E+00  0.20870E+01
  0.33333E+00 -0.33333E+00 -0.10000E+01  0.20309E+01
  0.33333E+00 -0.33333E+00 -0.81574E+00  0.20959E+01
  0.33333E+00 -0.33333E+00 -0.51760E+00  0.20870E+01
  0.33333E+00 -0.33333E+00 -0.33333E+00  0.20286E+01
 ZONE I =           4 ,J=           4 ,K=           4 ,F=POINT
  0.33333E+00 -0.10000E+01 -0.10000E+01  0.24233E+01
  0.33333E+00 -0.10000E+01 -0.81574E+00  0.19701E+01
  0.33333E+00 -0.10000E+01 -0.51760E+00  0.18332E+01
  0.33333E+00 -0.10000E+01 -0.33333E+00  0.19839E+01
  0.33333E+00 -0.81574E+00 -0.10000E+01  0.19701E+01
  0.33333E+00 -0.81574E+00 -0.81574E+00  0.18711E+01
  0.33333E+00 -0.81574E+00 -0.51760E+00  0.19959E+01
  0.33333E+00 -0.81574E+00 -0.33333E+00  0.21338E+01
  0.33333E+00 -0.51760E+00 -0.10000E+01  0.18332E+01
  0.33333E+00 -0.51760E+00 -0.81574E+00  0.19959E+01
  0.33333E+00 -0.51760E+00 -0.51760E+00  0.21326E+01
  0.33333E+00 -0.51760E+00 -0.33333E+00  0.21232E+01
  0.33333E+00 -0.33333E+00 -0.10000E+01  0.19839E+01
  0.33333E+00 -0.33333E+00 -0.81574E+00  0.21338E+01
  0.33333E+00 -0.33333E+00 -0.51760E+00  0.21232E+01
  0.33333E+00 -0.33333E+00 -0.33333E+00  0.20202E+01
  0.51760E+00 -0.10000E+01 -0.10000E+01  0.19701E+01
  0.51760E+00 -0.10000E+01 -0.81574E+00  0.18711E+01
  0.51760E+00 -0.10000E+01 -0.51760E+00  0.19959E+01
  0.51760E+00 -0.10000E+01 -0.33333E+00  0.21338E+01
  0.51760E+00 -0.81574E+00 -0.10000E+01  0.18711E+01
  0.51760E+00 -0.81574E+00 -0.81574E+00  0.19269E+01
  0.51760E+00 -0.81574E+00 -0.51760E+00  0.20615E+01
  0.51760E+00 -0.81574E+00 -0.33333E+00  0.21145E+01
  0.51760E+00 -0.51760E+00 -0.10000E+01  0.19959E+01
  0.51760E+00 -0.51760E+00 -0.81574E+00  0.20615E+01
  0.51760E+00 -0.51760E+00 -0.51760E+00  0.20688E+01
  0.51760E+00 -0.51760E+00 -0.33333E+00  0.20238E+01
  0.51760E+00 -0.33333E+00 -0.10000E+01  0.21338E+01
  0.51760E+00 -0.33333E+00 -0.81574E+00  0.21145E+01
  0.51760E+00 -0.33333E+00 -0.51760E+00  0.20238E+01
  0.51760E+00 -0.33333E+00 -0.33333E+00  0.19593E+01
  0.81574E+00 -0.10000E+01 -0.10000E+01  0.18332E+01
  0.81574E+00 -0.10000E+01 -0.81574E+00  0.19959E+01
  0.81574E+00 -0.10000E+01 -0.51760E+00  0.21326E+01
  0.81574E+00 -0.10000E+01 -0.33333E+00  0.21232E+01
  0.81574E+00 -0.81574E+00 -0.10000E+01  0.19959E+01
  0.81574E+00 -0.81574E+00 -0.81574E+00  0.20615E+01
  0.81574E+00 -0.81574E+00 -0.51760E+00  0.20688E+01
  0.81574E+00 -0.81574E+00 -0.33333E+00  0.20238E+01
  0.81574E+00 -0.51760E+00 -0.10000E+01  0.21326E+01
  0.81574E+00 -0.51760E+00 -0.81574E+00  0.20688E+01
  0.81574E+00 -0.51760E+00 -0.51760E+00  0.19729E+01
  0.81574E+00 -0.51760E+00 -0.33333E+00  0.19302E+01
  0.81574E+00 -0.33333E+00 -0.10000E+01  0.21232E+01
  0.81574E+00 -0.33333E+00 -0.81574E+00  0.20238E+01
  0.81574E+00 -0.33333E+00 -0.51760E+00  0.19302E+01
  0.81574E+00 -0.33333E+00 -0.33333E+00  0.19129E+01
  0.10000E+01 -0.10000E+01 -0.10000E+01  0.19839E+01
  0.10000E+01 -0.10000E+01 -0.81574E+00  0.21338E+01
  0.10000E+01 -0.10000E+01 -0.51760E+00  0.21232E+01
  0.10000E+01 -0.10000E+01 -0.33333E+00  0.20202E+01
  0.10000E+01 -0.81574E+00 -0.10000E+01  0.21338E+01
  0.10000E+01 -0.81574E+00 -0.81574E+00  0.21145E+01
  0.10000E+01 -0.81574E+00 -0.51760E+00  0.20238E+01
  0.10000E+01 -0.81574E+00 -0.33333E+00  0.19593E+01
  0.10000E+01 -0.51760E+00 -0.10000E+01  0.21232E+01
  0.10000E+01 -0.51760E+00 -0.81574E+00  0.20238E+01
  0.10000E+01 -0.51760E+00 -0.51760E+00  0.19302E+01
  0.10000E+01 -0.51760E+00 -0.33333E+00  0.19129E+01
  0.10000E+01 -0.33333E+00 -0.10000E+01  0.20202E+01
  0.10000E+01 -0.33333E+00 -0.81574E+00  0.19593E+01
  0.10000E+01 -0.33333E+00 -0.51760E+00  0.19129E+01
  0.10000E+01 -0.33333E+00 -0.33333E+00  0.19141E+01
 ZONE I =           4 ,J=           4 ,K=           4 ,F=POINT
 -0.10000E+01 -0.33333E+00 -0.10000E+01  0.13745E+01
 -0.10000E+01 -0.33333E+00 -0.81574E+00  0.16618E+01
 -0.10000E+01 -0.33333E+00 -0.51760E+00  0.20647E+01
 -0.10000E+01 -0.33333E+00 -0.33333E+00  0.21001E+01
 -0.10000E+01 -0.14907E+00 -0.10000E+01  0.16618E+01
 -0.10000E+01 -0.14907E+00 -0.81574E+00  0.19442E+01
 -0.10000E+01 -0.14907E+00 -0.51760E+00  0.20362E+01
 -0.10000E+01 -0.14907E+00 -0.33333E+00  0.19577E+01
 -0.10000E+01  0.14907E+00 -0.10000E+01  0.20647E+01
 -0.10000E+01  0.14907E+00 -0.81574E+00  0.20362E+01
 -0.10000E+01  0.14907E+00 -0.51760E+00  0.19492E+01
 -0.10000E+01  0.14907E+00 -0.33333E+00  0.19469E+01
 -0.10000E+01  0.33333E+00 -0.10000E+01  0.21001E+01
 -0.10000E+01  0.33333E+00 -0.81574E+00  0.19577E+01
 -0.10000E+01  0.33333E+00 -0.51760E+00  0.19469E+01
 -0.10000E+01  0.33333E+00 -0.33333E+00  0.20309E+01
 -0.81574E+00 -0.33333E+00 -0.10000E+01  0.16618E+01
 -0.81574E+00 -0.33333E+00 -0.81574E+00  0.19442E+01
 -0.81574E+00 -0.33333E+00 -0.51760E+00  0.20362E+01
 -0.81574E+00 -0.33333E+00 -0.33333E+00  0.19577E+01
 -0.81574E+00 -0.14907E+00 -0.10000E+01  0.19442E+01
 -0.81574E+00 -0.14907E+00 -0.81574E+00  0.20282E+01
 -0.81574E+00 -0.14907E+00 -0.51760E+00  0.19829E+01
 -0.81574E+00 -0.14907E+00 -0.33333E+00  0.19393E+01
 -0.81574E+00  0.14907E+00 -0.10000E+01  0.20362E+01
 -0.81574E+00  0.14907E+00 -0.81574E+00  0.19829E+01
 -0.81574E+00  0.14907E+00 -0.51760E+00  0.19841E+01
 -0.81574E+00  0.14907E+00 -0.33333E+00  0.20285E+01
 -0.81574E+00  0.33333E+00 -0.10000E+01  0.19577E+01
 -0.81574E+00  0.33333E+00 -0.81574E+00  0.19393E+01
 -0.81574E+00  0.33333E+00 -0.51760E+00  0.20285E+01
 -0.81574E+00  0.33333E+00 -0.33333E+00  0.20959E+01
 -0.51760E+00 -0.33333E+00 -0.10000E+01  0.20647E+01
 -0.51760E+00 -0.33333E+00 -0.81574E+00  0.20362E+01
 -0.51760E+00 -0.33333E+00 -0.51760E+00  0.19492E+01
 -0.51760E+00 -0.33333E+00 -0.33333E+00  0.19469E+01
 -0.51760E+00 -0.14907E+00 -0.10000E+01  0.20362E+01
 -0.51760E+00 -0.14907E+00 -0.81574E+00  0.19829E+01
 -0.51760E+00 -0.14907E+00 -0.51760E+00  0.19841E+01
 -0.51760E+00 -0.14907E+00 -0.33333E+00  0.20285E+01
 -0.51760E+00  0.14907E+00 -0.10000E+01  0.19492E+01
 -0.51760E+00  0.14907E+00 -0.81574E+00  0.19841E+01
 -0.51760E+00  0.14907E+00 -0.51760E+00  0.20698E+01
 -0.51760E+00  0.14907E+00 -0.33333E+00  0.20989E+01
 -0.51760E+00  0.33333E+00 -0.10000E+01  0.19469E+01
 -0.51760E+00  0.33333E+00 -0.81574E+00  0.20285E+01
 -0.51760E+00  0.33333E+00 -0.51760E+00  0.20989E+01
 -0.51760E+00  0.33333E+00 -0.33333E+00  0.20870E+01
 -0.33333E+00 -0.33333E+00 -0.10000E+01  0.21001E+01
 -0.33333E+00 -0.33333E+00 -0.81574E+00  0.19577E+01
 -0.33333E+00 -0.33333E+00 -0.51760E+00  0.19469E+01
 -0.33333E+00 -0.33333E+00 -0.33333E+00  0.20309E+01
 -0.33333E+00 -0.14907E+00 -0.10000E+01  0.19577E+01
 -0.33333E+00 -0.14907E+00 -0.81574E+00  0.19393E+01
 -0.33333E+00 -0.14907E+00 -0.51760E+00  0.20285E+01
 -0.33333E+00 -0.14907E+00 -0.33333E+00  0.20959E+01
 -0.33333E+00  0.14907E+00 -0.10000E+01  0.19469E+01
 -0.33333E+00  0.14907E+00 -0.81574E+00  0.20285E+01
 -0.33333E+00  0.14907E+00 -0.51760E+00  0.20989E+01
 -0.33333E+00  0.14907E+00 -0.33333E+00  0.20870E+01
 -0.33333E+00  0.33333E+00 -0.10000E+01  0.20309E+01
 -0.33333E+00  0.33333E+00 -0.81574E+00  0.20959E+01
 -0.33333E+00  0.33333E+00 -0.51760E+00  0.20870E+01
 -0.33333E+00  0.33333E+00 -0.33333E+00  0.20286E+01
 ZONE I =           4 ,J=           4 ,K=           4 ,F=POINT
 -0.33333E+00 -0.33333E+00 -0.10000E+01  0.24233E+01
 -0.33333E+00 -0.33333E+00 -0.81574E+00  0.19701E+01
 -0.33333E+00 -0.33333E+00 -0.51760E+00  0.18332E+01
 -0.33333E+00 -0.33333E+00 -0.33333E+00  0.19839E+01
 -0.33333E+00 -0.14907E+00 -0.10000E+01  0.19701E+01
 -0.33333E+00 -0.14907E+00 -0.81574E+00  0.18711E+01
 -0.33333E+00 -0.14907E+00 -0.51760E+00  0.19959E+01
 -0.33333E+00 -0.14907E+00 -0.33333E+00  0.21338E+01
 -0.33333E+00  0.14907E+00 -0.10000E+01  0.18332E+01
 -0.33333E+00  0.14907E+00 -0.81574E+00  0.19959E+01
 -0.33333E+00  0.14907E+00 -0.51760E+00  0.21326E+01
 -0.33333E+00  0.14907E+00 -0.33333E+00  0.21232E+01
 -0.33333E+00  0.33333E+00 -0.10000E+01  0.19839E+01
 -0.33333E+00  0.33333E+00 -0.81574E+00  0.21338E+01
 -0.33333E+00  0.33333E+00 -0.51760E+00  0.21232E+01
 -0.33333E+00  0.33333E+00 -0.33333E+00  0.20202E+01
 -0.14907E+00 -0.33333E+00 -0.10000E+01  0.19701E+01
 -0.14907E+00 -0.33333E+00 -0.81574E+00  0.18711E+01
 -0.14907E+00 -0.33333E+00 -0.51760E+00  0.19959E+01
 -0.14907E+00 -0.33333E+00 -0.33333E+00  0.21338E+01
 -0.14907E+00 -0.14907E+00 -0.10000E+01  0.18711E+01
 -0.14907E+00 -0.14907E+00 -0.81574E+00  0.19269E+01
 -0.14907E+00 -0.14907E+00 -0.51760E+00  0.20615E+01
 -0.14907E+00 -0.14907E+00 -0.33333E+00  0.21145E+01
 -0.14907E+00  0.14907E+00 -0.10000E+01  0.19959E+01
 -0.14907E+00  0.14907E+00 -0.81574E+00  0.20615E+01
 -0.14907E+00  0.14907E+00 -0.51760E+00  0.20688E+01
 -0.14907E+00  0.14907E+00 -0.33333E+00  0.20238E+01
 -0.14907E+00  0.33333E+00 -0.10000E+01  0.21338E+01
 -0.14907E+00  0.33333E+00 -0.81574E+00  0.21145E+01
 -0.14907E+00  0.33333E+00 -0.51760E+00  0.20238E+01
 -0.14907E+00  0.33333E+00 -0.33333E+00  0.19593E+01
  0.14907E+00 -0.33333E+00 -0.10000E+01  0.18332E+01
  0.14907E+00 -0.33333E+00 -0.81574E+00  0.19959E+01
  0.14907E+00 -0.33333E+00 -0.51760E+00  0.21326E+01
  0.14907E+00 -0.33333E+00 -0.33333E+00  0.21232E+01
  0.14907E+00 -0.14907E+00 -0.10000E+01  0.19959E+01
  0.14907E+00 -0.14907E+00 -0.81574E+00  0.20615E+01
  0.14907E+00 -0.14907E+00 -0.51760E+00  0.20688E+01
  0.14907E+00 -0.14907E+00 -0.33333E+00  0.20238E+01
  0.14907E+00  0.14907E+00 -0.10000E+01  0.21326E+01
  0.14907E+00  0.14907E+00 -0.81574E+00  0.20688E+01
  0.14907E+00  0.14907E+00 -0.51760E+00  0.19729E+01
  0.14907E+00  0.14907E+00 -0.33333E+00  0.19302E+01
  0.14907E+00  0.33333E+00 -0.10000E+01  0.21232E+01
  0.14907E+00  0.33333E+00 -0.81574E+00  0.20238E+01
  0.14907E+00  0.33333E+00 -0.51760E+00  0.19302E+01
  0.14907E+00  0.33333E+00 -0.33333E+00  0.19129E+01
  0.33333E+00 -0.33333E+00 -0.10000E+01  0.19839E+01
  0.33333E+00 -0.33333E+00 -0.81574E+00  0.21338E+01
  0.33333E+00 -0.33333E+00 -0.51760E+00  0.21232E+01
  0.33333E+00 -0.33333E+00 -0.33333E+00  0.20202E+01
  0.33333E+00 -0.14907E+00 -0.10000E+01  0.21338E+01
  0.33333E+00 -0.14907E+00 -0.81574E+00  0.21145E+01
  0.33333E+00 -0.14907E+00 -0.51760E+00  0.20238E+01
  0.33333E+00 -0.14907E+00 -0.33333E+00  0.19593E+01
  0.33333E+00  0.14907E+00 -0.10000E+01  0.21232E+01
  0.33333E+00  0.14907E+00 -0.81574E+00  0.20238E+01
  0.33333E+00  0.14907E+00 -0.51760E+00  0.19302E+01
  0.33333E+00  0.14907E+00 -0.33333E+00  0.19129E+01
  0.33333E+00  0.33333E+00 -0.10000E+01  0.20202E+01
  0.33333E+00  0.33333E+00 -0.81574E+00  0.19593E+01
  0.33333E+00  0.33333E+00 -0.51760E+00  0.19129E+01
  0.33333E+00  0.33333E+00 -0.33333E+00  0.19141E+01
 ZONE I =           4 ,J=           4 ,K=           4 ,F=POINT
  0.33333E+00 -0.33333E+00 -0.10000E+01  0.19879E+01
  0.33333E+00 -0.33333E+00 -0.81574E+00  0.24033E+01
  0.33333E+00 -0.33333E+00 -0.51760E+00  0.22086E+01
  0.33333E+00 -0.33333E+00 -0.33333E+00  0.19086E+01
  0.33333E+00 -0.14907E+00 -0.10000E+01  0.24033E+01
  0.33333E+00 -0.14907E+00 -0.81574E+00  0.22743E+01
  0.33333E+00 -0.14907E+00 -0.51760E+00  0.19958E+01
  0.33333E+00 -0.14907E+00 -0.33333E+00  0.18883E+01
  0.33333E+00  0.14907E+00 -0.10000E+01  0.22086E+01
  0.33333E+00  0.14907E+00 -0.81574E+00  0.19958E+01
  0.33333E+00  0.14907E+00 -0.51760E+00  0.19018E+01
  0.33333E+00  0.14907E+00 -0.33333E+00  0.19357E+01
  0.33333E+00  0.33333E+00 -0.10000E+01  0.19086E+01
  0.33333E+00  0.33333E+00 -0.81574E+00  0.18883E+01
  0.33333E+00  0.33333E+00 -0.51760E+00  0.19357E+01
  0.33333E+00  0.33333E+00 -0.33333E+00  0.19614E+01
  0.51760E+00 -0.33333E+00 -0.10000E+01  0.24033E+01
  0.51760E+00 -0.33333E+00 -0.81574E+00  0.22743E+01
  0.51760E+00 -0.33333E+00 -0.51760E+00  0.19958E+01
  0.51760E+00 -0.33333E+00 -0.33333E+00  0.18883E+01
  0.51760E+00 -0.14907E+00 -0.10000E+01  0.22743E+01
  0.51760E+00 -0.14907E+00 -0.81574E+00  0.21013E+01
  0.51760E+00 -0.14907E+00 -0.51760E+00  0.19549E+01
  0.51760E+00 -0.14907E+00 -0.33333E+00  0.19407E+01
  0.51760E+00  0.14907E+00 -0.10000E+01  0.19958E+01
  0.51760E+00  0.14907E+00 -0.81574E+00  0.19549E+01
  0.51760E+00  0.14907E+00 -0.51760E+00  0.19442E+01
  0.51760E+00  0.14907E+00 -0.33333E+00  0.19545E+01
  0.51760E+00  0.33333E+00 -0.10000E+01  0.18883E+01
  0.51760E+00  0.33333E+00 -0.81574E+00  0.19407E+01
  0.51760E+00  0.33333E+00 -0.51760E+00  0.19545E+01
  0.51760E+00  0.33333E+00 -0.33333E+00  0.19447E+01
  0.81574E+00 -0.33333E+00 -0.10000E+01  0.22086E+01
  0.81574E+00 -0.33333E+00 -0.81574E+00  0.19958E+01
  0.81574E+00 -0.33333E+00 -0.51760E+00  0.19018E+01
  0.81574E+00 -0.33333E+00 -0.33333E+00  0.19357E+01
  0.81574E+00 -0.14907E+00 -0.10000E+01  0.19958E+01
  0.81574E+00 -0.14907E+00 -0.81574E+00  0.19549E+01
  0.81574E+00 -0.14907E+00 -0.51760E+00  0.19442E+01
  0.81574E+00 -0.14907E+00 -0.33333E+00  0.19545E+01
  0.81574E+00  0.14907E+00 -0.10000E+01  0.19018E+01
  0.81574E+00  0.14907E+00 -0.81574E+00  0.19442E+01
  0.81574E+00  0.14907E+00 -0.51760E+00  0.19617E+01
  0.81574E+00  0.14907E+00 -0.33333E+00  0.19700E+01
  0.81574E+00  0.33333E+00 -0.10000E+01  0.19357E+01
  0.81574E+00  0.33333E+00 -0.81574E+00  0.19545E+01
  0.81574E+00  0.33333E+00 -0.51760E+00  0.19700E+01
  0.81574E+00  0.33333E+00 -0.33333E+00  0.19974E+01
  0.10000E+01 -0.33333E+00 -0.10000E+01  0.19086E+01
  0.10000E+01 -0.33333E+00 -0.81574E+00  0.18883E+01
  0.10000E+01 -0.33333E+00 -0.51760E+00  0.19357E+01
  0.10000E+01 -0.33333E+00 -0.33333E+00  0.19614E+01
  0.10000E+01 -0.14907E+00 -0.10000E+01  0.18883E+01
  0.10000E+01 -0.14907E+00 -0.81574E+00  0.19407E+01
  0.10000E+01 -0.14907E+00 -0.51760E+00  0.19545E+01
  0.10000E+01 -0.14907E+00 -0.33333E+00  0.19447E+01
  0.10000E+01  0.14907E+00 -0.10000E+01  0.19357E+01
  0.10000E+01  0.14907E+00 -0.81574E+00  0.19545E+01
  0.10000E+01  0.14907E+00 -0.51760E+00  0.19700E+01
  0.10000E+01  0.14907E+00 -0.33333E+00  0.19974E+01
  0.10000E+01  0.33333E+00 -0.10000E+01  0.19614E+01
  0.10000E+01  0.33333E+00 -0.81574E+00  0.19447E+01
  0.10000E+01  0.33333E+00 -0.51760E+00  0.19974E+01
  0.10000E+01  0.33333E+00 -0.33333E+00  0.20606E+01
 ZONE I =           4 ,J=           4 ,K=           4 ,F=POINT
 -0.10000E+01  0.33333E+00 -0.10000E+01  0.24233E+01
 -0.10000E+01  0.33333E+00 -0.81574E+00  0.19701E+01
 -0.10000E+01  0.33333E+00 -0.51760E+00  0.18332E+01
 -0.10000E+01  0.33333E+00 -0.33333E+00  0.19839E+01
 -0.10000E+01  0.51760E+00 -0.10000E+01  0.19701E+01
 -0.10000E+01  0.51760E+00 -0.81574E+00  0.18711E+01
 -0.10000E+01  0.51760E+00 -0.51760E+00  0.19959E+01
 -0.10000E+01  0.51760E+00 -0.33333E+00  0.21338E+01
 -0.10000E+01  0.81574E+00 -0.10000E+01  0.18332E+01
 -0.10000E+01  0.81574E+00 -0.81574E+00  0.19959E+01
 -0.10000E+01  0.81574E+00 -0.51760E+00  0.21326E+01
 -0.10000E+01  0.81574E+00 -0.33333E+00  0.21232E+01
 -0.10000E+01  0.10000E+01 -0.10000E+01  0.19839E+01
 -0.10000E+01  0.10000E+01 -0.81574E+00  0.21338E+01
 -0.10000E+01  0.10000E+01 -0.51760E+00  0.21232E+01
 -0.10000E+01  0.10000E+01 -0.33333E+00  0.20202E+01
 -0.81574E+00  0.33333E+00 -0.10000E+01  0.19701E+01
 -0.81574E+00  0.33333E+00 -0.81574E+00  0.18711E+01
 -0.81574E+00  0.33333E+00 -0.51760E+00  0.19959E+01
 -0.81574E+00  0.33333E+00 -0.33333E+00  0.21338E+01
 -0.81574E+00  0.51760E+00 -0.10000E+01  0.18711E+01
 -0.81574E+00  0.51760E+00 -0.81574E+00  0.19269E+01
 -0.81574E+00  0.51760E+00 -0.51760E+00  0.20615E+01
 -0.81574E+00  0.51760E+00 -0.33333E+00  0.21145E+01
 -0.81574E+00  0.81574E+00 -0.10000E+01  0.19959E+01
 -0.81574E+00  0.81574E+00 -0.81574E+00  0.20615E+01
 -0.81574E+00  0.81574E+00 -0.51760E+00  0.20688E+01
 -0.81574E+00  0.81574E+00 -0.33333E+00  0.20238E+01
 -0.81574E+00  0.10000E+01 -0.10000E+01  0.21338E+01
 -0.81574E+00  0.10000E+01 -0.81574E+00  0.21145E+01
 -0.81574E+00  0.10000E+01 -0.51760E+00  0.20238E+01
 -0.81574E+00  0.10000E+01 -0.33333E+00  0.19593E+01
 -0.51760E+00  0.33333E+00 -0.10000E+01  0.18332E+01
 -0.51760E+00  0.33333E+00 -0.81574E+00  0.19959E+01
 -0.51760E+00  0.33333E+00 -0.51760E+00  0.21326E+01
 -0.51760E+00  0.33333E+00 -0.33333E+00  0.21232E+01
 -0.51760E+00  0.51760E+00 -0.10000E+01  0.19959E+01
 -0.51760E+00  0.51760E+00 -0.81574E+00  0.20615E+01
 -0.51760E+00  0.51760E+00 -0.51760E+00  0.20688E+01
 -0.51760E+00  0.51760E+00 -0.33333E+00  0.20238E+01
 -0.51760E+00  0.81574E+00 -0.10000E+01  0.21326E+01
 -0.51760E+00  0.81574E+00 -0.81574E+00  0.20688E+01
 -0.51760E+00  0.81574E+00 -0.51760E+00  0.19729E+01
 -0.51760E+00  0.81574E+00 -0.33333E+00  0.19302E+01
 -0.51760E+00  0.10000E+01 -0.10000E+01  0.21232E+01
 -0.51760E+00  0.10000E+01 -0.81574E+00  0.20238E+01
 -0.51760E+00  0.10000E+01 -0.51760E+00  0.19302E+01
 -0.51760E+00  0.10000E+01 -0.33333E+00  0.19129E+01
 -0.33333E+00  0.33333E+00 -0.10000E+01  0.19839E+01
 -0.33333E+00  0.33333E+00 -0.81574E+00  0.21338E+01
 -0.33333E+00  0.33333E+00 -0.51760E+00  0.21232E+01
 -0.33333E+00  0.33333E+00 -0.33333E+00  0.20202E+01
 -0.33333E+00  0.51760E+00 -0.10000E+01  0.21338E+01
 -0.33333E+00  0.51760E+00 -0.81574E+00  0.21145E+01
 -0.33333E+00  0.51760E+00 -0.51760E+00  0.20238E+01
 -0.33333E+00  0.51760E+00 -0.33333E+00  0.19593E+01
 -0.33333E+00  0.81574E+00 -0.10000E+01  0.21232E+01
 -0.33333E+00  0.81574E+00 -0.81574E+00  0.20238E+01
 -0.33333E+00  0.81574E+00 -0.51760E+00  0.19302E+01
 -0.33333E+00  0.81574E+00 -0.33333E+00  0.19129E+01
 -0.33333E+00  0.10000E+01 -0.10000E+01  0.20202E+01
 -0.33333E+00  0.10000E+01 -0.81574E+00  0.19593E+01
 -0.33333E+00  0.10000E+01 -0.51760E+00  0.19129E+01
 -0.33333E+00  0.10000E+01 -0.33333E+00  0.19141E+01
 ZONE I =           4 ,J=           4 ,K=           4 ,F=POINT
 -0.33333E+00  0.33333E+00 -0.10000E+01  0.19879E+01
 -0.33333E+00  0.33333E+00 -0.81574E+00  0.24033E+01
 -0.33333E+00  0.33333E+00 -0.51760E+00  0.22086E+01
 -0.33333E+00  0.33333E+00 -0.33333E+00  0.19086E+01
 -0.33333E+00  0.51760E+00 -0.10000E+01  0.24033E+01
 -0.33333E+00  0.51760E+00 -0.81574E+00  0.22743E+01
 -0.33333E+00  0.51760E+00 -0.51760E+00  0.19958E+01
 -0.33333E+00  0.51760E+00 -0.33333E+00  0.18883E+01
 -0.33333E+00  0.81574E+00 -0.10000E+01  0.22086E+01
 -0.33333E+00  0.81574E+00 -0.81574E+00  0.19958E+01
 -0.33333E+00  0.81574E+00 -0.51760E+00  0.19018E+01
 -0.33333E+00  0.81574E+00 -0.33333E+00  0.19357E+01
 -0.33333E+00  0.10000E+01 -0.10000E+01  0.19086E+01
 -0.33333E+00  0.10000E+01 -0.81574E+00  0.18883E+01
 -0.33333E+00  0.10000E+01 -0.51760E+00  0.19357E+01
 -0.33333E+00  0.10000E+01 -0.33333E+00  0.19614E+01
 -0.14907E+00  0.33333E+00 -0.10000E+01  0.24033E+01
 -0.14907E+00  0.33333E+00 -0.81574E+00  0.22743E+01
 -0.14907E+00  0.33333E+00 -0.51760E+00  0.19958E+01
 -0.14907E+00  0.33333E+00 -0.33333E+00  0.18883E+01
 -0.14907E+00  0.51760E+00 -0.10000E+01  0.22743E+01
 -0.14907E+00  0.51760E+00 -0.81574E+00  0.21013E+01
 -0.14907E+00  0.51760E+00 -0.51760E+00  0.19549E+01
 -0.14907E+00  0.51760E+00 -0.33333E+00  0.19407E+01
 -0.14907E+00  0.81574E+00 -0.10000E+01  0.19958E+01
 -0.14907E+00  0.81574E+00 -0.81574E+00  0.19549E+01
 -0.14907E+00  0.81574E+00 -0.51760E+00  0.19442E+01
 -0.14907E+00  0.81574E+00 -0.33333E+00  0.19545E+01
 -0.14907E+00  0.10000E+01 -0.10000E+01  0.18883E+01
 -0.14907E+00  0.10000E+01 -0.81574E+00  0.19407E+01
 -0.14907E+00  0.10000E+01 -0.51760E+00  0.19545E+01
 -0.14907E+00  0.10000E+01 -0.33333E+00  0.19447E+01
  0.14907E+00  0.33333E+00 -0.10000E+01  0.22086E+01
  0.14907E+00  0.33333E+00 -0.81574E+00  0.19958E+01
  0.14907E+00  0.33333E+00 -0.51760E+00  0.19018E+01
  0.14907E+00  0.33333E+00 -0.33333E+00  0.19357E+01
  0.14907E+00  0.51760E+00 -0.10000E+01  0.19958E+01
  0.14907E+00  0.51760E+00 -0.81574E+00  0.19549E+01
  0.14907E+00  0.51760E+00 -0.51760E+00  0.19442E+01
  0.14907E+00  0.51760E+00 -0.33333E+00  0.19545E+01
  0.14907E+00  0.81574E+00 -0.10000E+01  0.19018E+01
  0.14907E+00  0.81574E+00 -0.81574E+00  0.19442E+01
  0.14907E+00  0.81574E+00 -0.51760E+00  0.19617E+01
  0.14907E+00  0.81574E+00 -0.33333E+00  0.19700E+01
  0.14907E+00  0.10000E+01 -0.10000E+01  0.19357E+01
  0.14907E+00  0.10000E+01 -0.81574E+00  0.19545E+01
  0.14907E+00  0.10000E+01 -0.51760E+00  0.19700E+01
  0.14907E+00  0.10000E+01 -0.33333E+00  0.19974E+01
  0.33333E+00  0.33333E+00 -0.10000E+01  0.19086E+01
  0.33333E+00  0.33333E+00 -0.81574E+00  0.18883E+01
  0.33333E+00  0.33333E+00 -0.51760E+00  0.19357E+01
  0.33333E+00  0.33333E+00 -0.33333E+00  0.19614E+01
  0.33333E+00  0.51760E+00 -0.10000E+01  0.18883E+01
  0.33333E+00  0.51760E+00 -0.81574E+00  0.19407E+01
  0.33333E+00  0.51760E+00 -0.51760E+00  0.19545E+01
  0.33333E+00  0.51760E+00 -0.33333E+00  0.19447E+01
  0.33333E+00  0.81574E+00 -0.10000E+01  0.19357E+01
  0.33333E+00  0.81574E+00 -0.81574E+00  0.19545E+01
  0.33333E+00  0.81574E+00 -0.51760E+00  0.19700E+01
  0.33333E+00  0.81574E+00 -0.33333E+00  0.19974E+01
  0.33333E+00  0.10000E+01 -0.10000E+01  0.19614E+01
  0.33333E+00  0.10000E+01 -0.81574E+00  0.19447E+01
  0.33333E+00  0.10000E+01 -0.51760E+00  0.19974E+01
  0.33333E+00  0.10000E+01 -0.33333E+00  0.20606E+01
 ZONE I =           4 ,J=           4 ,K=           4 ,F=POINT
  0.33333E+00  0.33333E+00 -0.10000E+01  0.13745E+01
  0.33333E+00  0.33333E+00 -0.81574E+00  0.16618E+01
  0.33333E+00  0.33333E+00 -0.51760E+00  0.20647E+01
  0.33333E+00  0.33333E+00 -0.33333E+00  0.21001E+01
  0.33333E+00  0.51760E+00 -0.10000E+01  0.16618E+01
  0.33333E+00  0.51760E+00 -0.81574E+00  0.19442E+01
  0.33333E+00  0.51760E+00 -0.51760E+00  0.20362E+01
  0.33333E+00  0.51760E+00 -0.33333E+00  0.19577E+01
  0.33333E+00  0.81574E+00 -0.10000E+01  0.20647E+01
  0.33333E+00  0.81574E+00 -0.81574E+00  0.20362E+01
  0.33333E+00  0.81574E+00 -0.51760E+00  0.19492E+01
  0.33333E+00  0.81574E+00 -0.33333E+00  0.19469E+01
  0.33333E+00  0.10000E+01 -0.10000E+01  0.21001E+01
  0.33333E+00  0.10000E+01 -0.81574E+00  0.19577E+01
  0.33333E+00  0.10000E+01 -0.51760E+00  0.19469E+01
  0.33333E+00  0.10000E+01 -0.33333E+00  0.20309E+01
  0.51760E+00  0.33333E+00 -0.10000E+01  0.16618E+01
  0.51760E+00  0.33333E+00 -0.81574E+00  0.19442E+01
  0.51760E+00  0.33333E+00 -0.51760E+00  0.20362E+01
  0.51760E+00  0.33333E+00 -0.33333E+00  0.19577E+01
  0.51760E+00  0.51760E+00 -0.10000E+01  0.19442E+01
  0.51760E+00  0.51760E+00 -0.81574E+00  0.20282E+01
  0.51760E+00  0.51760E+00 -0.51760E+00  0.19829E+01
  0.51760E+00  0.51760E+00 -0.33333E+00  0.19393E+01
  0.51760E+00  0.81574E+00 -0.10000E+01  0.20362E+01
  0.51760E+00  0.81574E+00 -0.81574E+00  0.19829E+01
  0.51760E+00  0.81574E+00 -0.51760E+00  0.19841E+01
  0.51760E+00  0.81574E+00 -0.33333E+00  0.20285E+01
  0.51760E+00  0.10000E+01 -0.10000E+01  0.19577E+01
  0.51760E+00  0.10000E+01 -0.81574E+00  0.19393E+01
  0.51760E+00  0.10000E+01 -0.51760E+00  0.20285E+01
  0.51760E+00  0.10000E+01 -0.33333E+00  0.20959E+01
  0.81574E+00  0.33333E+00 -0.10000E+01  0.20647E+01
  0.81574E+00  0.33333E+00 -0.81574E+00  0.20362E+01
  0.81574E+00  0.33333E+00 -0.51760E+00  0.19492E+01
  0.81574E+00  0.33333E+00 -0.33333E+00  0.19469E+01
  0.81574E+00  0.51760E+00 -0.10000E+01  0.20362E+01
  0.81574E+00  0.51760E+00 -0.81574E+00  0.19829E+01
  0.81574E+00  0.51760E+00 -0.51760E+00  0.19841E+01
  0.81574E+00  0.51760E+00 -0.33333E+00  0.20285E+01
  0.81574E+00  0.81574E+00 -0.10000E+01  0.19492E+01
  0.81574E+00  0.81574E+00 -0.81574E+00  0.19841E+01