 TITLE = "rhosolution.tec"
 VARIABLES = "x","y","z","rho"
 ZONE I =           4 ,J=           4 ,K=           4 ,F=POINT
 -0.10000E+01 -0.10000E+01 -0.10000E+01  0.20000E+01
 -0.10000E+01 -0.10000E+01 -0.81574E+00  0.19453E+01
 -0.10000E+01 -0.10000E+01 -0.51760E+00  0.19002E+01
 -0.10000E+01 -0.10000E+01 -0.33333E+00  0.19134E+01
 -0.10000E+01 -0.81574E+00 -0.10000E+01  0.19453E+01
 -0.10000E+01 -0.81574E+00 -0.81574E+00  0.19084E+01
 -0.10000E+01 -0.81574E+00 -0.51760E+00  0.19134E+01
 -0.10000E+01 -0.81574E+00 -0.33333E+00  0.19549E+01
 -0.10000E+01 -0.51760E+00 -0.10000E+01  0.19002E+01
 -0.10000E+01 -0.51760E+00 -0.81574E+00  0.19134E+01
 -0.10000E+01 -0.51760E+00 -0.51760E+00  0.19890E+01
 -0.10000E+01 -0.51760E+00 -0.33333E+00  0.20451E+01
 -0.10000E+01 -0.33333E+00 -0.10000E+01  0.19134E+01
 -0.10000E+01 -0.33333E+00 -0.81574E+00  0.19549E+01
 -0.10000E+01 -0.33333E+00 -0.51760E+00  0.20451E+01
 -0.10000E+01 -0.33333E+00 -0.33333E+00  0.20866E+01
 -0.81574E+00 -0.10000E+01 -0.10000E+01  0.19453E+01
 -0.81574E+00 -0.10000E+01 -0.81574E+00  0.19084E+01
 -0.81574E+00 -0.10000E+01 -0.51760E+00  0.19134E+01
 -0.81574E+00 -0.10000E+01 -0.33333E+00  0.19549E+01
 -0.81574E+00 -0.81574E+00 -0.10000E+01  0.19084E+01
 -0.81574E+00 -0.81574E+00 -0.81574E+00  0.19014E+01
 -0.81574E+00 -0.81574E+00 -0.51760E+00  0.19549E+01
 -0.81574E+00 -0.81574E+00 -0.33333E+00  0.20110E+01
 -0.81574E+00 -0.51760E+00 -0.10000E+01  0.19134E+01
 -0.81574E+00 -0.51760E+00 -0.81574E+00  0.19549E+01
 -0.81574E+00 -0.51760E+00 -0.51760E+00  0.20451E+01
 -0.81574E+00 -0.51760E+00 -0.33333E+00  0.20866E+01
 -0.81574E+00 -0.33333E+00 -0.10000E+01  0.19549E+01
 -0.81574E+00 -0.33333E+00 -0.81574E+00  0.20110E+01
 -0.81574E+00 -0.33333E+00 -0.51760E+00  0.20866E+01
 -0.81574E+00 -0.33333E+00 -0.33333E+00  0.20998E+01
 -0.51760E+00 -0.10000E+01 -0.10000E+01  0.19002E+01
 -0.51760E+00 -0.10000E+01 -0.81574E+00  0.19134E+01
 -0.51760E+00 -0.10000E+01 -0.51760E+00  0.19890E+01
 -0.51760E+00 -0.10000E+01 -0.33333E+00  0.20451E+01
 -0.51760E+00 -0.81574E+00 -0.10000E+01  0.19134E+01
 -0.51760E+00 -0.81574E+00 -0.81574E+00  0.19549E+01
 -0.51760E+00 -0.81574E+00 -0.51760E+00  0.20451E+01
 -0.51760E+00 -0.81574E+00 -0.33333E+00  0.20866E+01
 -0.51760E+00 -0.51760E+00 -0.10000E+01  0.19890E+01
 -0.51760E+00 -0.51760E+00 -0.81574E+00  0.20451E+01
 -0.51760E+00 -0.51760E+00 -0.51760E+00  0.20986E+01
 -0.51760E+00 -0.51760E+00 -0.33333E+00  0.20916E+01
 -0.51760E+00 -0.33333E+00 -0.10000E+01  0.20451E+01
 -0.51760E+00 -0.33333E+00 -0.81574E+00  0.20866E+01
 -0.51760E+00 -0.33333E+00 -0.51760E+00  0.20916E+01
 -0.51760E+00 -0.33333E+00 -0.33333E+00  0.20547E+01
 -0.33333E+00 -0.10000E+01 -0.10000E+01  0.19134E+01
 -0.33333E+00 -0.10000E+01 -0.81574E+00  0.19549E+01
 -0.33333E+00 -0.10000E+01 -0.51760E+00  0.20451E+01
 -0.33333E+00 -0.10000E+01 -0.33333E+00  0.20866E+01
 -0.33333E+00 -0.81574E+00 -0.10000E+01  0.19549E+01
 -0.33333E+00 -0.81574E+00 -0.81574E+00  0.20110E+01
 -0.33333E+00 -0.81574E+00 -0.51760E+00  0.20866E+01
 -0.33333E+00 -0.81574E+00 -0.33333E+00  0.20998E+01
 -0.33333E+00 -0.51760E+00 -0.10000E+01  0.20451E+01
 -0.33333E+00 -0.51760E+00 -0.81574E+00  0.20866E+01
 -0.33333E+00 -0.51760E+00 -0.51760E+00  0.20916E+01
 -0.33333E+00 -0.51760E+00 -0.33333E+00  0.20547E+01
 -0.33333E+00 -0.33333E+00 -0.10000E+01  0.20866E+01
 -0.33333E+00 -0.33333E+00 -0.81574E+00  0.20998E+01
 -0.33333E+00 -0.33333E+00 -0.51760E+00  0.20547E+01
 -0.33333E+00 -0.33333E+00 -0.33333E+00  0.20000E+01
 ZONE I =           4 ,J=           4 ,K=           4 ,F=POINT
 -0.33333E+00 -0.10000E+01 -0.10000E+01  0.19134E+01
 -0.33333E+00 -0.10000E+01 -0.81574E+00  0.19549E+01
 -0.33333E+00 -0.10000E+01 -0.51760E+00  0.20451E+01
 -0.33333E+00 -0.10000E+01 -0.33333E+00  0.20866E+01
 -0.33333E+00 -0.81574E+00 -0.10000E+01  0.19549E+01
 -0.33333E+00 -0.81574E+00 -0.81574E+00  0.20110E+01
 -0.33333E+00 -0.81574E+00 -0.51760E+00  0.20866E+01
 -0.33333E+00 -0.81574E+00 -0.33333E+00  0.20998E+01
 -0.33333E+00 -0.51760E+00 -0.10000E+01  0.20451E+01
 -0.33333E+00 -0.51760E+00 -0.81574E+00  0.20866E+01
 -0.33333E+00 -0.51760E+00 -0.51760E+00  0.20916E+01
 -0.33333E+00 -0.51760E+00 -0.33333E+00  0.20547E+01
 -0.33333E+00 -0.33333E+00 -0.10000E+01  0.20866E+01
 -0.33333E+00 -0.33333E+00 -0.81574E+00  0.20998E+01
 -0.33333E+00 -0.33333E+00 -0.51760E+00  0.20547E+01
 -0.33333E+00 -0.33333E+00 -0.33333E+00  0.20000E+01
 -0.14907E+00 -0.10000E+01 -0.10000E+01  0.19549E+01
 -0.14907E+00 -0.10000E+01 -0.81574E+00  0.20110E+01
 -0.14907E+00 -0.10000E+01 -0.51760E+00  0.20866E+01
 -0.14907E+00 -0.10000E+01 -0.33333E+00  0.20998E+01
 -0.14907E+00 -0.81574E+00 -0.10000E+01  0.20110E+01
 -0.14907E+00 -0.81574E+00 -0.81574E+00  0.20636E+01
 -0.14907E+00 -0.81574E+00 -0.51760E+00  0.20998E+01
 -0.14907E+00 -0.81574E+00 -0.33333E+00  0.20806E+01
 -0.14907E+00 -0.51760E+00 -0.10000E+01  0.20866E+01
 -0.14907E+00 -0.51760E+00 -0.81574E+00  0.20998E+01
 -0.14907E+00 -0.51760E+00 -0.51760E+00  0.20547E+01
 -0.14907E+00 -0.51760E+00 -0.33333E+00  0.20000E+01
 -0.14907E+00 -0.33333E+00 -0.10000E+01  0.20998E+01
 -0.14907E+00 -0.33333E+00 -0.81574E+00  0.20806E+01
 -0.14907E+00 -0.33333E+00 -0.51760E+00  0.20000E+01
 -0.14907E+00 -0.33333E+00 -0.33333E+00  0.19453E+01
  0.14907E+00 -0.10000E+01 -0.10000E+01  0.20451E+01
  0.14907E+00 -0.10000E+01 -0.81574E+00  0.20866E+01
  0.14907E+00 -0.10000E+01 -0.51760E+00  0.20916E+01
  0.14907E+00 -0.10000E+01 -0.33333E+00  0.20547E+01
  0.14907E+00 -0.81574E+00 -0.10000E+01  0.20866E+01
  0.14907E+00 -0.81574E+00 -0.81574E+00  0.20998E+01
  0.14907E+00 -0.81574E+00 -0.51760E+00  0.20547E+01
  0.14907E+00 -0.81574E+00 -0.33333E+00  0.20000E+01
  0.14907E+00 -0.51760E+00 -0.10000E+01  0.20916E+01
  0.14907E+00 -0.51760E+00 -0.81574E+00  0.20547E+01
  0.14907E+00 -0.51760E+00 -0.51760E+00  0.19650E+01
  0.14907E+00 -0.51760E+00 -0.33333E+00  0.19194E+01
  0.14907E+00 -0.33333E+00 -0.10000E+01  0.20547E+01
  0.14907E+00 -0.33333E+00 -0.81574E+00  0.20000E+01
  0.14907E+00 -0.33333E+00 -0.51760E+00  0.19194E+01
  0.14907E+00 -0.33333E+00 -0.33333E+00  0.19002E+01
  0.33333E+00 -0.10000E+01 -0.10000E+01  0.20866E+01
  0.33333E+00 -0.10000E+01 -0.81574E+00  0.20998E+01
  0.33333E+00 -0.10000E+01 -0.51760E+00  0.20547E+01
  0.33333E+00 -0.10000E+01 -0.33333E+00  0.20000E+01
  0.33333E+00 -0.81574E+00 -0.10000E+01  0.20998E+01
  0.33333E+00 -0.81574E+00 -0.81574E+00  0.20806E+01
  0.33333E+00 -0.81574E+00 -0.51760E+00  0.20000E+01
  0.33333E+00 -0.81574E+00 -0.33333E+00  0.19453E+01
  0.33333E+00 -0.51760E+00 -0.10000E+01  0.20547E+01
  0.33333E+00 -0.51760E+00 -0.81574E+00  0.20000E+01
  0.33333E+00 -0.51760E+00 -0.51760E+00  0.19194E+01
  0.33333E+00 -0.51760E+00 -0.33333E+00  0.19002E+01
  0.33333E+00 -0.33333E+00 -0.10000E+01  0.20000E+01
  0.33333E+00 -0.33333E+00 -0.81574E+00  0.19453E+01
  0.33333E+00 -0.33333E+00 -0.51760E+00  0.19002E+01
  0.33333E+00 -0.33333E+00 -0.33333E+00  0.19134E+01
 ZONE I =           4 ,J=           4 ,K=           4 ,F=POINT
  0.33333E+00 -0.10000E+01 -0.10000E+01  0.20866E+01
  0.33333E+00 -0.10000E+01 -0.81574E+00  0.20998E+01
  0.33333E+00 -0.10000E+01 -0.51760E+00  0.20547E+01
  0.33333E+00 -0.10000E+01 -0.33333E+00  0.20000E+01
  0.33333E+00 -0.81574E+00 -0.10000E+01  0.20998E+01
  0.33333E+00 -0.81574E+00 -0.81574E+00  0.20806E+01
  0.33333E+00 -0.81574E+00 -0.51760E+00  0.20000E+01
  0.33333E+00 -0.81574E+00 -0.33333E+00  0.19453E+01
  0.33333E+00 -0.51760E+00 -0.10000E+01  0.20547E+01
  0.33333E+00 -0.51760E+00 -0.81574E+00  0.20000E+01
  0.33333E+00 -0.51760E+00 -0.51760E+00  0.19194E+01
  0.33333E+00 -0.51760E+00 -0.33333E+00  0.19002E+01
  0.33333E+00 -0.33333E+00 -0.10000E+01  0.20000E+01
  0.33333E+00 -0.33333E+00 -0.81574E+00  0.19453E+01
  0.33333E+00 -0.33333E+00 -0.51760E+00  0.19002E+01
  0.33333E+00 -0.33333E+00 -0.33333E+00  0.19134E+01
  0.51760E+00 -0.10000E+01 -0.10000E+01  0.20998E+01
  0.51760E+00 -0.10000E+01 -0.81574E+00  0.20806E+01
  0.51760E+00 -0.10000E+01 -0.51760E+00  0.20000E+01
  0.51760E+00 -0.10000E+01 -0.33333E+00  0.19453E+01
  0.51760E+00 -0.81574E+00 -0.10000E+01  0.20806E+01
  0.51760E+00 -0.81574E+00 -0.81574E+00  0.20350E+01
  0.51760E+00 -0.81574E+00 -0.51760E+00  0.19453E+01
  0.51760E+00 -0.81574E+00 -0.33333E+00  0.19084E+01
  0.51760E+00 -0.51760E+00 -0.10000E+01  0.20000E+01
  0.51760E+00 -0.51760E+00 -0.81574E+00  0.19453E+01
  0.51760E+00 -0.51760E+00 -0.51760E+00  0.19002E+01
  0.51760E+00 -0.51760E+00 -0.33333E+00  0.19134E+01
  0.51760E+00 -0.33333E+00 -0.10000E+01  0.19453E+01
  0.51760E+00 -0.33333E+00 -0.81574E+00  0.19084E+01
  0.51760E+00 -0.33333E+00 -0.51760E+00  0.19134E+01
  0.51760E+00 -0.33333E+00 -0.33333E+00  0.19549E+01
  0.81574E+00 -0.10000E+01 -0.10000E+01  0.20547E+01
  0.81574E+00 -0.10000E+01 -0.81574E+00  0.20000E+01
  0.81574E+00 -0.10000E+01 -0.51760E+00  0.19194E+01
  0.81574E+00 -0.10000E+01 -0.33333E+00  0.19002E+01
  0.81574E+00 -0.81574E+00 -0.10000E+01  0.20000E+01
  0.81574E+00 -0.81574E+00 -0.81574E+00  0.19453E+01
  0.81574E+00 -0.81574E+00 -0.51760E+00  0.19002E+01
  0.81574E+00 -0.81574E+00 -0.33333E+00  0.19134E+01
  0.81574E+00 -0.51760E+00 -0.10000E+01  0.19194E+01
  0.81574E+00 -0.51760E+00 -0.81574E+00  0.19002E+01
  0.81574E+00 -0.51760E+00 -0.51760E+00  0.19364E+01
  0.81574E+00 -0.51760E+00 -0.33333E+00  0.19890E+01
  0.81574E+00 -0.33333E+00 -0.10000E+01  0.19002E+01
  0.81574E+00 -0.33333E+00 -0.81574E+00  0.19134E+01
  0.81574E+00 -0.33333E+00 -0.51760E+00  0.19890E+01
  0.81574E+00 -0.33333E+00 -0.33333E+00  0.20451E+01
  0.10000E+01 -0.10000E+01 -0.10000E+01  0.20000E+01
  0.10000E+01 -0.10000E+01 -0.81574E+00  0.19453E+01
  0.10000E+01 -0.10000E+01 -0.51760E+00  0.19002E+01
  0.10000E+01 -0.10000E+01 -0.33333E+00  0.19134E+01
  0.10000E+01 -0.81574E+00 -0.10000E+01  0.19453E+01
  0.10000E+01 -0.81574E+00 -0.81574E+00  0.19084E+01
  0.10000E+01 -0.81574E+00 -0.51760E+00  0.19134E+01
  0.10000E+01 -0.81574E+00 -0.33333E+00  0.19549E+01
  0.10000E+01 -0.51760E+00 -0.10000E+01  0.19002E+01
  0.10000E+01 -0.51760E+00 -0.81574E+00  0.19134E+01
  0.10000E+01 -0.51760E+00 -0.51760E+00  0.19890E+01
  0.10000E+01 -0.51760E+00 -0.33333E+00  0.20451E+01
  0.10000E+01 -0.33333E+00 -0.10000E+01  0.19134E+01
  0.10000E+01 -0.33333E+00 -0.81574E+00  0.19549E+01
  0.10000E+01 -0.33333E+00 -0.51760E+00  0.20451E+01
  0.10000E+01 -0.33333E+00 -0.33333E+00  0.20866E+01
 ZONE I =           4 ,J=           4 ,K=           4 ,F=POINT
 -0.10000E+01 -0.33333E+00 -0.10000E+01  0.19134E+01
 -0.10000E+01 -0.33333E+00 -0.81574E+00  0.19549E+01
 -0.10000E+01 -0.33333E+00 -0.51760E+00  0.20451E+01
 -0.10000E+01 -0.33333E+00 -0.33333E+00  0.20866E+01
 -0.10000E+01 -0.14907E+00 -0.10000E+01  0.19549E+01
 -0.10000E+01 -0.14907E+00 -0.81574E+00  0.20110E+01
 -0.10000E+01 -0.14907E+00 -0.51760E+00  0.20866E+01
 -0.10000E+01 -0.14907E+00 -0.33333E+00  0.20998E+01
 -0.10000E+01  0.14907E+00 -0.10000E+01  0.20451E+01
 -0.10000E+01  0.14907E+00 -0.81574E+00  0.20866E+01
 -0.10000E+01  0.14907E+00 -0.51760E+00  0.20916E+01
 -0.10000E+01  0.14907E+00 -0.33333E+00  0.20547E+01
 -0.10000E+01  0.33333E+00 -0.10000E+01  0.20866E+01
 -0.10000E+01  0.33333E+00 -0.81574E+00  0.20998E+01
 -0.10000E+01  0.33333E+00 -0.51760E+00  0.20547E+01
 -0.10000E+01  0.33333E+00 -0.33333E+00  0.20000E+01
 -0.81574E+00 -0.33333E+00 -0.10000E+01  0.19549E+01
 -0.81574E+00 -0.33333E+00 -0.81574E+00  0.20110E+01
 -0.81574E+00 -0.33333E+00 -0.51760E+00  0.20866E+01
 -0.81574E+00 -0.33333E+00 -0.33333E+00  0.20998E+01
 -0.81574E+00 -0.14907E+00 -0.10000E+01  0.20110E+01
 -0.81574E+00 -0.14907E+00 -0.81574E+00  0.20636E+01
 -0.81574E+00 -0.14907E+00 -0.51760E+00  0.20998E+01
 -0.81574E+00 -0.14907E+00 -0.33333E+00  0.20806E+01
 -0.81574E+00  0.14907E+00 -0.10000E+01  0.20866E+01
 -0.81574E+00  0.14907E+00 -0.81574E+00  0.20998E+01
 -0.81574E+00  0.14907E+00 -0.51760E+00  0.20547E+01
 -0.81574E+00  0.14907E+00 -0.33333E+00  0.20000E+01
 -0.81574E+00  0.33333E+00 -0.10000E+01  0.20998E+01
 -0.81574E+00  0.33333E+00 -0.81574E+00  0.20806E+01
 -0.81574E+00  0.33333E+00 -0.51760E+00  0.20000E+01
 -0.81574E+00  0.33333E+00 -0.33333E+00  0.19453E+01
 -0.51760E+00 -0.33333E+00 -0.10000E+01  0.20451E+01
 -0.51760E+00 -0.33333E+00 -0.81574E+00  0.20866E+01
 -0.51760E+00 -0.33333E+00 -0.51760E+00  0.20916E+01
 -0.51760E+00 -0.33333E+00 -0.33333E+00  0.20547E+01
 -0.51760E+00 -0.14907E+00 -0.10000E+01  0.20866E+01
 -0.51760E+00 -0.14907E+00 -0.81574E+00  0.20998E+01
 -0.51760E+00 -0.14907E+00 -0.51760E+00  0.20547E+01
 -0.51760E+00 -0.14907E+00 -0.33333E+00  0.20000E+01
 -0.51760E+00  0.14907E+00 -0.10000E+01  0.20916E+01
 -0.51760E+00  0.14907E+00 -0.81574E+00  0.20547E+01
 -0.51760E+00  0.14907E+00 -0.51760E+00  0.19650E+01
 -0.51760E+00  0.14907E+00 -0.33333E+00  0.19194E+01
 -0.51760E+00  0.33333E+00 -0.10000E+01  0.20547E+01
 -0.51760E+00  0.33333E+00 -0.81574E+00  0.20000E+01
 -0.51760E+00  0.33333E+00 -0.51760E+00  0.19194E+01
 -0.51760E+00  0.33333E+00 -0.33333E+00  0.19002E+01
 -0.33333E+00 -0.33333E+00 -0.10000E+01  0.20866E+01
 -0.33333E+00 -0.33333E+00 -0.81574E+00  0.20998E+01
 -0.33333E+00 -0.33333E+00 -0.51760E+00  0.20547E+01
 -0.33333E+00 -0.33333E+00 -0.33333E+00  0.20000E+01
 -0.33333E+00 -0.14907E+00 -0.10000E+01  0.20998E+01
 -0.33333E+00 -0.14907E+00 -0.81574E+00  0.20806E+01
 -0.33333E+00 -0.14907E+00 -0.51760E+00  0.20000E+01
 -0.33333E+00 -0.14907E+00 -0.33333E+00  0.19453E+01
 -0.33333E+00  0.14907E+00 -0.10000E+01  0.20547E+01
 -0.33333E+00  0.14907E+00 -0.81574E+00  0.20000E+01
 -0.33333E+00  0.14907E+00 -0.51760E+00  0.19194E+01
 -0.33333E+00  0.14907E+00 -0.33333E+00  0.19002E+01
 -0.33333E+00  0.33333E+00 -0.10000E+01  0.20000E+01
 -0.33333E+00  0.33333E+00 -0.81574E+00  0.19453E+01
 -0.33333E+00  0.33333E+00 -0.51760E+00  0.19002E+01
 -0.33333E+00  0.33333E+00 -0.33333E+00  0.19134E+01
 ZONE I =           4 ,J=           4 ,K=           4 ,F=POINT
 -0.33333E+00 -0.33333E+00 -0.10000E+01  0.20866E+01
 -0.33333E+00 -0.33333E+00 -0.81574E+00  0.20998E+01
 -0.33333E+00 -0.33333E+00 -0.51760E+00  0.20547E+01
 -0.33333E+00 -0.33333E+00 -0.33333E+00  0.20000E+01
 -0.33333E+00 -0.14907E+00 -0.10000E+01  0.20998E+01
 -0.33333E+00 -0.14907E+00 -0.81574E+00  0.20806E+01
 -0.33333E+00 -0.14907E+00 -0.51760E+00  0.20000E+01
 -0.33333E+00 -0.14907E+00 -0.33333E+00  0.19453E+01
 -0.33333E+00  0.14907E+00 -0.10000E+01  0.20547E+01
 -0.33333E+00  0.14907E+00 -0.81574E+00  0.20000E+01
 -0.33333E+00  0.14907E+00 -0.51760E+00  0.19194E+01
 -0.33333E+00  0.14907E+00 -0.33333E+00  0.19002E+01
 -0.33333E+00  0.33333E+00 -0.10000E+01  0.20000E+01
 -0.33333E+00  0.33333E+00 -0.81574E+00  0.19453E+01
 -0.33333E+00  0.33333E+00 -0.51760E+00  0.19002E+01
 -0.33333E+00  0.33333E+00 -0.33333E+00  0.19134E+01
 -0.14907E+00 -0.33333E+00 -0.10000E+01  0.20998E+01
 -0.14907E+00 -0.33333E+00 -0.81574E+00  0.20806E+01
 -0.14907E+00 -0.33333E+00 -0.51760E+00  0.20000E+01
 -0.14907E+00 -0.33333E+00 -0.33333E+00  0.19453E+01
 -0.14907E+00 -0.14907E+00 -0.10000E+01  0.20806E+01
 -0.14907E+00 -0.14907E+00 -0.81574E+00  0.20350E+01
 -0.14907E+00 -0.14907E+00 -0.51760E+00  0.19453E+01
 -0.14907E+00 -0.14907E+00 -0.33333E+00  0.19084E+01
 -0.14907E+00  0.14907E+00 -0.10000E+01  0.20000E+01
 -0.14907E+00  0.14907E+00 -0.81574E+00  0.19453E+01
 -0.14907E+00  0.14907E+00 -0.51760E+00  0.19002E+01
 -0.14907E+00  0.14907E+00 -0.33333E+00  0.19134E+01
 -0.14907E+00  0.33333E+00 -0.10000E+01  0.19453E+01
 -0.14907E+00  0.33333E+00 -0.81574E+00  0.19084E+01
 -0.14907E+00  0.33333E+00 -0.51760E+00  0.19134E+01
 -0.14907E+00  0.33333E+00 -0.33333E+00  0.19549E+01
  0.14907E+00 -0.33333E+00 -0.10000E+01  0.20547E+01
  0.14907E+00 -0.33333E+00 -0.81574E+00  0.20000E+01
  0.14907E+00 -0.33333E+00 -0.51760E+00  0.19194E+01
  0.14907E+00 -0.33333E+00 -0.33333E+00  0.19002E+01
  0.14907E+00 -0.14907E+00 -0.10000E+01  0.20000E+01
  0.14907E+00 -0.14907E+00 -0.81574E+00  0.19453E+01
  0.14907E+00 -0.14907E+00 -0.51760E+00  0.19002E+01
  0.14907E+00 -0.14907E+00 -0.33333E+00  0.19134E+01
  0.14907E+00  0.14907E+00 -0.10000E+01  0.19194E+01
  0.14907E+00  0.14907E+00 -0.81574E+00  0.19002E+01
  0.14907E+00  0.14907E+00 -0.51760E+00  0.19364E+01
  0.14907E+00  0.14907E+00 -0.33333E+00  0.19890E+01
  0.14907E+00  0.33333E+00 -0.10000E+01  0.19002E+01
  0.14907E+00  0.33333E+00 -0.81574E+00  0.19134E+01
  0.14907E+00  0.33333E+00 -0.51760E+00  0.19890E+01
  0.14907E+00  0.33333E+00 -0.33333E+00  0.20451E+01
  0.33333E+00 -0.33333E+00 -0.10000E+01  0.20000E+01
  0.33333E+00 -0.33333E+00 -0.81574E+00  0.19453E+01
  0.33333E+00 -0.33333E+00 -0.51760E+00  0.19002E+01
  0.33333E+00 -0.33333E+00 -0.33333E+00  0.19134E+01
  0.33333E+00 -0.14907E+00 -0.10000E+01  0.19453E+01
  0.33333E+00 -0.14907E+00 -0.81574E+00  0.19084E+01
  0.33333E+00 -0.14907E+00 -0.51760E+00  0.19134E+01
  0.33333E+00 -0.14907E+00 -0.33333E+00  0.19549E+01
  0.33333E+00  0.14907E+00 -0.10000E+01  0.19002E+01
  0.33333E+00  0.14907E+00 -0.81574E+00  0.19134E+01
  0.33333E+00  0.14907E+00 -0.51760E+00  0.19890E+01
  0.33333E+00  0.14907E+00 -0.33333E+00  0.20451E+01
  0.33333E+00  0.33333E+00 -0.10000E+01  0.19134E+01
  0.33333E+00  0.33333E+00 -0.81574E+00  0.19549E+01
  0.33333E+00  0.33333E+00 -0.51760E+00  0.20451E+01
  0.33333E+00  0.33333E+00 -0.33333E+00  0.20866E+01
 ZONE I =           4 ,J=           4 ,K=           4 ,F=POINT
  0.33333E+00 -0.33333E+00 -0.10000E+01  0.20000E+01
  0.33333E+00 -0.33333E+00 -0.81574E+00  0.19453E+01
  0.33333E+00 -0.33333E+00 -0.51760E+00  0.19002E+01
  0.33333E+00 -0.33333E+00 -0.33333E+00  0.19134E+01
  0.33333E+00 -0.14907E+00 -0.10000E+01  0.19453E+01
  0.33333E+00 -0.14907E+00 -0.81574E+00  0.19084E+01
  0.33333E+00 -0.14907E+00 -0.51760E+00  0.19134E+01
  0.33333E+00 -0.14907E+00 -0.33333E+00  0.19549E+01
  0.33333E+00  0.14907E+00 -0.10000E+01  0.19002E+01
  0.33333E+00  0.14907E+00 -0.81574E+00  0.19134E+01
  0.33333E+00  0.14907E+00 -0.51760E+00  0.19890E+01
  0.33333E+00  0.14907E+00 -0.33333E+00  0.20451E+01
  0.33333E+00  0.33333E+00 -0.10000E+01  0.19134E+01
  0.33333E+00  0.33333E+00 -0.81574E+00  0.19549E+01
  0.33333E+00  0.33333E+00 -0.51760E+00  0.20451E+01
  0.33333E+00  0.33333E+00 -0.33333E+00  0.20866E+01
  0.51760E+00 -0.33333E+00 -0.10000E+01  0.19453E+01
  0.51760E+00 -0.33333E+00 -0.81574E+00  0.19084E+01
  0.51760E+00 -0.33333E+00 -0.51760E+00  0.19134E+01
  0.51760E+00 -0.33333E+00 -0.33333E+00  0.19549E+01
  0.51760E+00 -0.14907E+00 -0.10000E+01  0.19084E+01
  0.51760E+00 -0.14907E+00 -0.81574E+00  0.19014E+01
  0.51760E+00 -0.14907E+00 -0.51760E+00  0.19549E+01
  0.51760E+00 -0.14907E+00 -0.33333E+00  0.20110E+01
  0.51760E+00  0.14907E+00 -0.10000E+01  0.19134E+01
  0.51760E+00  0.14907E+00 -0.81574E+00  0.19549E+01
  0.51760E+00  0.14907E+00 -0.51760E+00  0.20451E+01
  0.51760E+00  0.14907E+00 -0.33333E+00  0.20866E+01
  0.51760E+00  0.33333E+00 -0.10000E+01  0.19549E+01
  0.51760E+00  0.33333E+00 -0.81574E+00  0.20110E+01
  0.51760E+00  0.33333E+00 -0.51760E+00  0.20866E+01
  0.51760E+00  0.33333E+00 -0.33333E+00  0.20998E+01
  0.81574E+00 -0.33333E+00 -0.10000E+01  0.19002E+01
  0.81574E+00 -0.33333E+00 -0.81574E+00  0.19134E+01
  0.81574E+00 -0.33333E+00 -0.51760E+00  0.19890E+01
  0.81574E+00 -0.33333E+00 -0.33333E+00  0.20451E+01
  0.81574E+00 -0.14907E+00 -0.10000E+01  0.19134E+01
  0.81574E+00 -0.14907E+00 -0.81574E+00  0.19549E+01
  0.81574E+00 -0.14907E+00 -0.51760E+00  0.20451E+01
  0.81574E+00 -0.14907E+00 -0.33333E+00  0.20866E+01
  0.81574E+00  0.14907E+00 -0.10000E+01  0.19890E+01
  0.81574E+00  0.14907E+00 -0.81574E+00  0.20451E+01
  0.81574E+00  0.14907E+00 -0.51760E+00  0.20986E+01
  0.81574E+00  0.14907E+00 -0.33333E+00  0.20916E+01
  0.81574E+00  0.33333E+00 -0.10000E+01  0.20451E+01
  0.81574E+00  0.33333E+00 -0.81574E+00  0.20866E+01
  0.81574E+00  0.33333E+00 -0.51760E+00  0.20916E+01
  0.81574E+00  0.33333E+00 -0.33333E+00  0.20547E+01
  0.10000E+01 -0.33333E+00 -0.10000E+01  0.19134E+01
  0.10000E+01 -0.33333E+00 -0.81574E+00  0.19549E+01
  0.10000E+01 -0.33333E+00 -0.51760E+00  0.20451E+01
  0.10000E+01 -0.33333E+00 -0.33333E+00  0.20866E+01
  0.10000E+01 -0.14907E+00 -0.10000E+01  0.19549E+01
  0.10000E+01 -0.14907E+00 -0.81574E+00  0.20110E+01
  0.10000E+01 -0.14907E+00 -0.51760E+00  0.20866E+01
  0.10000E+01 -0.14907E+00 -0.33333E+00  0.20998E+01
  0.10000E+01  0.14907E+00 -0.10000E+01  0.20451E+01
  0.10000E+01  0.14907E+00 -0.81574E+00  0.20866E+01
  0.10000E+01  0.14907E+00 -0.51760E+00  0.20916E+01
  0.10000E+01  0.14907E+00 -0.33333E+00  0.20547E+01
  0.10000E+01  0.33333E+00 -0.10000E+01  0.20866E+01
  0.10000E+01  0.33333E+00 -0.81574E+00  0.20998E+01
  0.10000E+01  0.33333E+00 -0.51760E+00  0.20547E+01
  0.10000E+01  0.33333E+00 -0.33333E+00  0.20000E+01
 ZONE I =           4 ,J=           4 ,K=           4 ,F=POINT
 -0.10000E+01  0.33333E+00 -0.10000E+01  0.20866E+01
 -0.10000E+01  0.33333E+00 -0.81574E+00  0.20998E+01
 -0.10000E+01  0.33333E+00 -0.51760E+00  0.20547E+01
 -0.10000E+01  0.33333E+00 -0.33333E+00  0.20000E+01
 -0.10000E+01  0.51760E+00 -0.10000E+01  0.20998E+01
 -0.10000E+01  0.51760E+00 -0.81574E+00  0.20806E+01
 -0.10000E+01  0.51760E+00 -0.51760E+00  0.20000E+01
 -0.10000E+01  0.51760E+00 -0.33333E+00  0.19453E+01
 -0.10000E+01  0.81574E+00 -0.10000E+01  0.20547E+01
 -0.10000E+01  0.81574E+00 -0.81574E+00  0.20000E+01
 -0.10000E+01  0.81574E+00 -0.51760E+00  0.19194E+01
 -0.10000E+01  0.81574E+00 -0.33333E+00  0.19002E+01
 -0.10000E+01  0.10000E+01 -0.10000E+01  0.20000E+01
 -0.10000E+01  0.10000E+01 -0.81574E+00  0.19453E+01
 -0.10000E+01  0.10000E+01 -0.51760E+00  0.19002E+01
 -0.10000E+01  0.10000E+01 -0.33333E+00  0.19134E+01
 -0.81574E+00  0.33333E+00 -0.10000E+01  0.20998E+01
 -0.81574E+00  0.33333E+00 -0.81574E+00  0.20806E+01
 -0.81574E+00  0.33333E+00 -0.51760E+00  0.20000E+01
 -0.81574E+00  0.33333E+00 -0.33333E+00  0.19453E+01
 -0.81574E+00  0.51760E+00 -0.10000E+01  0.20806E+01
 -0.81574E+00  0.51760E+00 -0.81574E+00  0.20350E+01
 -0.81574E+00  0.51760E+00 -0.51760E+00  0.19453E+01
 -0.81574E+00  0.51760E+00 -0.33333E+00  0.19084E+01
 -0.81574E+00  0.81574E+00 -0.10000E+01  0.20000E+01
 -0.81574E+00  0.81574E+00 -0.81574E+00  0.19453E+01
 -0.81574E+00  0.81574E+00 -0.51760E+00  0.19002E+01
 -0.81574E+00  0.81574E+00 -0.33333E+00  0.19134E+01
 -0.81574E+00  0.10000E+01 -0.10000E+01  0.19453E+01
 -0.81574E+00  0.10000E+01 -0.81574E+00  0.19084E+01
 -0.81574E+00  0.10000E+01 -0.51760E+00  0.19134E+01
 -0.81574E+00  0.10000E+01 -0.33333E+00  0.19549E+01
 -0.51760E+00  0.33333E+00 -0.10000E+01  0.20547E+01
 -0.51760E+00  0.33333E+00 -0.81574E+00  0.20000E+01
 -0.51760E+00  0.33333E+00 -0.51760E+00  0.19194E+01
 -0.51760E+00  0.33333E+00 -0.33333E+00  0.19002E+01
 -0.51760E+00  0.51760E+00 -0.10000E+01  0.20000E+01
 -0.51760E+00  0.51760E+00 -0.81574E+00  0.19453E+01
 -0.51760E+00  0.51760E+00 -0.51760E+00  0.19002E+01
 -0.51760E+00  0.51760E+00 -0.33333E+00  0.19134E+01
 -0.51760E+00  0.81574E+00 -0.10000E+01  0.19194E+01
 -0.51760E+00  0.81574E+00 -0.81574E+00  0.19002E+01
 -0.51760E+00  0.81574E+00 -0.51760E+00  0.19364E+01
 -0.51760E+00  0.81574E+00 -0.33333E+00  0.19890E+01
 -0.51760E+00  0.10000E+01 -0.10000E+01  0.19002E+01
 -0.51760E+00  0.10000E+01 -0.81574E+00  0.19134E+01
 -0.51760E+00  0.10000E+01 -0.51760E+00  0.19890E+01
 -0.51760E+00  0.10000E+01 -0.33333E+00  0.20451E+01
 -0.33333E+00  0.33333E+00 -0.10000E+01  0.20000E+01
 -0.33333E+00  0.33333E+00 -0.81574E+00  0.19453E+01
 -0.33333E+00  0.33333E+00 -0.51760E+00  0.19002E+01
 -0.33333E+00  0.33333E+00 -0.33333E+00  0.19134E+01
 -0.33333E+00  0.51760E+00 -0.10000E+01  0.19453E+01
 -0.33333E+00  0.51760E+00 -0.81574E+00  0.19084E+01
 -0.33333E+00  0.51760E+00 -0.51760E+00  0.19134E+01
 -0.33333E+00  0.51760E+00 -0.33333E+00  0.19549E+01
 -0.33333E+00  0.81574E+00 -0.10000E+01  0.19002E+01
 -0.33333E+00  0.81574E+00 -0.81574E+00  0.19134E+01
 -0.33333E+00  0.81574E+00 -0.51760E+00  0.19890E+01
 -0.33333E+00  0.81574E+00 -0.33333E+00  0.20451E+01
 -0.33333E+00  0.10000E+01 -0.10000E+01  0.19134E+01
 -0.33333E+00  0.10000E+01 -0.81574E+00  0.19549E+01
 -0.33333E+00  0.10000E+01 -0.51760E+00  0.20451E+01
 -0.33333E+00  0.10000E+01 -0.33333E+00  0.20866E+01
 ZONE I =           4 ,J=           4 ,K=           4 ,F=POINT
 -0.33333E+00  0.33333E+00 -0.10000E+01  0.20000E+01
 -0.33333E+00  0.33333E+00 -0.81574E+00  0.19453E+01
 -0.33333E+00  0.33333E+00 -0.51760E+00  0.19002E+01
 -0.33333E+00  0.33333E+00 -0.33333E+00  0.19134E+01
 -0.33333E+00  0.51760E+00 -0.10000E+01  0.19453E+01
 -0.33333E+00  0.51760E+00 -0.81574E+00  0.19084E+01
 -0.33333E+00  0.51760E+00 -0.51760E+00  0.19134E+01
 -0.33333E+00  0.51760E+00 -0.33333E+00  0.19549E+01
 -0.33333E+00  0.81574E+00 -0.10000E+01  0.19002E+01
 -0.33333E+00  0.81574E+00 -0.81574E+00  0.19134E+01
 -0.33333E+00  0.81574E+00 -0.51760E+00  0.19890E+01
 -0.33333E+00  0.81574E+00 -0.33333E+00  0.20451E+01
 -0.33333E+00  0.10000E+01 -0.10000E+01  0.19134E+01
 -0.33333E+00  0.10000E+01 -0.81574E+00  0.19549E+01
 -0.33333E+00  0.10000E+01 -0.51760E+00  0.20451E+01
 -0.33333E+00  0.10000E+01 -0.33333E+00  0.20866E+01
 -0.14907E+00  0.33333E+00 -0.10000E+01  0.19453E+01
 -0.14907E+00  0.33333E+00 -0.81574E+00  0.19084E+01
 -0.14907E+00  0.33333E+00 -0.51760E+00  0.19134E+01
 -0.14907E+00  0.33333E+00 -0.33333E+00  0.19549E+01
 -0.14907E+00  0.51760E+00 -0.10000E+01  0.19084E+01
 -0.14907E+00  0.51760E+00 -0.81574E+00  0.19014E+01
 -0.14907E+00  0.51760E+00 -0.51760E+00  0.19549E+01
 -0.14907E+00  0.51760E+00 -0.33333E+00  0.20110E+01
 -0.14907E+00  0.81574E+00 -0.10000E+01  0.19134E+01
 -0.14907E+00  0.81574E+00 -0.81574E+00  0.19549E+01
 -0.14907E+00  0.81574E+00 -0.51760E+00  0.20451E+01
 -0.14907E+00  0.81574E+00 -0.33333E+00  0.20866E+01
 -0.14907E+00  0.10000E+01 -0.10000E+01  0.19549E+01
 -0.14907E+00  0.10000E+01 -0.81574E+00  0.20110E+01
 -0.14907E+00  0.10000E+01 -0.51760E+00  0.20866E+01
 -0.14907E+00  0.10000E+01 -0.33333E+00  0.20998E+01
  0.14907E+00  0.33333E+00 -0.10000E+01  0.19002E+01
  0.14907E+00  0.33333E+00 -0.81574E+00  0.19134E+01
  0.14907E+00  0.33333E+00 -0.51760E+00  0.19890E+01
  0.14907E+00  0.33333E+00 -0.33333E+00  0.20451E+01
  0.14907E+00  0.51760E+00 -0.10000E+01  0.19134E+01
  0.14907E+00  0.51760E+00 -0.81574E+00  0.19549E+01
  0.14907E+00  0.51760E+00 -0.51760E+00  0.20451E+01
  0.14907E+00  0.51760E+00 -0.33333E+00  0.20866E+01
  0.14907E+00  0.81574E+00 -0.10000E+01  0.19890E+01
  0.14907E+00  0.81574E+00 -0.81574E+00  0.20451E+01
  0.14907E+00  0.81574E+00 -0.51760E+00  0.20986E+01
  0.14907E+00  0.81574E+00 -0.33333E+00  0.20916E+01
  0.14907E+00  0.10000E+01 -0.10000E+01  0.20451E+01
  0.14907E+00  0.10000E+01 -0.81574E+00  0.20866E+01
  0.14907E+00  0.10000E+01 -0.51760E+00  0.20916E+01
  0.14907E+00  0.10000E+01 -0.33333E+00  0.20547E+01
  0.33333E+00  0.33333E+00 -0.10000E+01  0.19134E+01
  0.33333E+00  0.33333E+00 -0.81574E+00  0.19549E+01
  0.33333E+00  0.33333E+00 -0.51760E+00  0.20451E+01
  0.33333E+00  0.33333E+00 -0.33333E+00  0.20866E+01
  0.33333E+00  0.51760E+00 -0.10000E+01  0.19549E+01
  0.33333E+00  0.51760E+00 -0.81574E+00  0.20110E+01
  0.33333E+00  0.51760E+00 -0.51760E+00  0.20866E+01
  0.33333E+00  0.51760E+00 -0.33333E+00  0.20998E+01
  0.33333E+00  0.81574E+00 -0.10000E+01  0.20451E+01
  0.33333E+00  0.81574E+00 -0.81574E+00  0.20866E+01
  0.33333E+00  0.81574E+00 -0.51760E+00  0.20916E+01
  0.33333E+00  0.81574E+00 -0.33333E+00  0.20547E+01
  0.33333E+00  0.10000E+01 -0.10000E+01  0.20866E+01
  0.33333E+00  0.10000E+01 -0.81574E+00  0.20998E+01
  0.33333E+00  0.10000E+01 -0.51760E+00  0.20547E+01
  0.33333E+00  0.10000E+01 -0.33333E+00  0.20000E+01
 ZONE I =           4 ,J=           4 ,K=           4 ,F=POINT
  0.33333E+00  0.33333E+00 -0.10000E+01  0.19134E+01
  0.33333E+00  0.33333E+00 -0.81574E+00  0.19549E+01
  0.33333E+00  0.33333E+00 -0.51760E+00  0.20451E+01
  0.33333E+00  0.33333E+00 -0.33333E+00  0.20866E+01
  0.33333E+00  0.51760E+00 -0.10000E+01  0.19549E+01
  0.33333E+00  0.51760E+00 -0.81574E+00  0.20110E+01
  0.33333E+00  0.51760E+00 -0.51760E+00  0.20866E+01
  0.33333E+00  0.51760E+00 -0.33333E+00  0.20998E+01
  0.33333E+00  0.81574E+00 -0.10000E+01  0.20451E+01
  0.33333E+00  0.81574E+00 -0.81574E+00  0.20866E+01
  0.33333E+00  0.81574E+00 -0.51760E+00  0.20916E+01
  0.33333E+00  0.81574E+00 -0.33333E+00  0.20547E+01
  0.33333E+00  0.10000E+01 -0.10000E+01  0.20866E+01
  0.33333E+00  0.10000E+01 -0.81574E+00  0.20998E+01
  0.33333E+00  0.10000E+01 -0.51760E+00  0.20547E+01
  0.33333E+00  0.10000E+01 -0.33333E+00  0.20000E+01
  0.51760E+00  0.33333E+00 -0.10000E+01  0.19549E+01
  0.51760E+00  0.33333E+00 -0.81574E+00  0.20110E+01
  0.51760E+00  0.33333E+00 -0.51760E+00  0.20866E+01
  0.51760E+00  0.33333E+00 -0.33333E+00  0.20998E+01
  0.51760E+00  0.51760E+00 -0.10000E+01  0.20110E+01
  0.51760E+00  0.51760E+00 -0.81574E+00  0.20636E+01
  0.51760E+00  0.51760E+00 -0.51760E+00  0.20998E+01
  0.51760E+00  0.51760E+00 -0.33333E+00  0.20806E+01
  0.51760E+00  0.81574E+00 -0.10000E+01  0.20866E+01
  0.51760E+00  0.81574E+00 -0.81574E+00  0.20998E+01
  0.51760E+00  0.81574E+00 -0.51760E+00  0.20547E+01
  0.51760E+00  0.81574E+00 -0.33333E+00  0.20000E+01
  0.51760E+00  0.10000E+01 -0.10000E+01  0.20998E+01
  0.51760E+00  0.10000E+01 -0.81574E+00  0.20806E+01
  0.51760E+00  0.10000E+01 -0.51760E+00  0.20000E+01
  0.51760E+00  0.10000E+01 -0.33333E+00  0.19453E+01
  0.81574E+00  0.33333E+00 -0.10000E+01  0.20451E+01
  0.81574E+00  0.33333E+00 -0.81574E+00  0.20866E+01
  0.81574E+00  0.33333E+00 -0.51760E+00  0.20916E+01
  0.81574E+00  0.33333E+00 -0.33333E+00  0.20547E+01
  0.81574E+00  0.51760E+00 -0.10000E+01  0.20866E+01
  0.81574E+00  0.51760E+00 -0.81574E+00  0.20998E+01
  0.81574E+00  0.51760E+00 -0.51760E+00  0.20547E+01
  0.81574E+00  0.51760E+00 -0.33333E+00  0.20000E+01
  0.81574E+00  0.81574E+00 -0.10000E+01  0.20916E+01
  0.81574E+00  0.81574E+00 -0.81574E+00  0.20547E+01