 TITLE = "rhosolution.tec"
 VARIABLES = "x","y","z","rho"
 ZONE I =           4 ,J=           4 ,K=           4 ,F=POINT
 -0.10000E+01 -0.10000E+01 -0.10000E+01  0.20000E+01
 -0.10000E+01 -0.10000E+01 -0.88944E+00  0.19660E+01
 -0.10000E+01 -0.10000E+01 -0.71056E+00  0.19211E+01
 -0.10000E+01 -0.10000E+01 -0.60000E+00  0.19049E+01
 -0.10000E+01 -0.88944E+00 -0.10000E+01  0.19660E+01
 -0.10000E+01 -0.88944E+00 -0.88944E+00  0.19360E+01
 -0.10000E+01 -0.88944E+00 -0.71056E+00  0.19049E+01
 -0.10000E+01 -0.88944E+00 -0.60000E+00  0.19001E+01
 -0.10000E+01 -0.71056E+00 -0.10000E+01  0.19211E+01
 -0.10000E+01 -0.71056E+00 -0.88944E+00  0.19049E+01
 -0.10000E+01 -0.71056E+00 -0.71056E+00  0.19031E+01
 -0.10000E+01 -0.71056E+00 -0.60000E+00  0.19172E+01
 -0.10000E+01 -0.60000E+00 -0.10000E+01  0.19049E+01
 -0.10000E+01 -0.60000E+00 -0.88944E+00  0.19001E+01
 -0.10000E+01 -0.60000E+00 -0.71056E+00  0.19172E+01
 -0.10000E+01 -0.60000E+00 -0.60000E+00  0.19412E+01
 -0.88944E+00 -0.10000E+01 -0.10000E+01  0.19660E+01
 -0.88944E+00 -0.10000E+01 -0.88944E+00  0.19360E+01
 -0.88944E+00 -0.10000E+01 -0.71056E+00  0.19049E+01
 -0.88944E+00 -0.10000E+01 -0.60000E+00  0.19001E+01
 -0.88944E+00 -0.88944E+00 -0.10000E+01  0.19360E+01
 -0.88944E+00 -0.88944E+00 -0.88944E+00  0.19137E+01
 -0.88944E+00 -0.88944E+00 -0.71056E+00  0.19001E+01
 -0.88944E+00 -0.88944E+00 -0.60000E+00  0.19072E+01
 -0.88944E+00 -0.71056E+00 -0.10000E+01  0.19049E+01
 -0.88944E+00 -0.71056E+00 -0.88944E+00  0.19001E+01
 -0.88944E+00 -0.71056E+00 -0.71056E+00  0.19172E+01
 -0.88944E+00 -0.71056E+00 -0.60000E+00  0.19412E+01
 -0.88944E+00 -0.60000E+00 -0.10000E+01  0.19001E+01
 -0.88944E+00 -0.60000E+00 -0.88944E+00  0.19072E+01
 -0.88944E+00 -0.60000E+00 -0.71056E+00  0.19412E+01
 -0.88944E+00 -0.60000E+00 -0.60000E+00  0.19723E+01
 -0.71056E+00 -0.10000E+01 -0.10000E+01  0.19211E+01
 -0.71056E+00 -0.10000E+01 -0.88944E+00  0.19049E+01
 -0.71056E+00 -0.10000E+01 -0.71056E+00  0.19031E+01
 -0.71056E+00 -0.10000E+01 -0.60000E+00  0.19172E+01
 -0.71056E+00 -0.88944E+00 -0.10000E+01  0.19049E+01
 -0.71056E+00 -0.88944E+00 -0.88944E+00  0.19001E+01
 -0.71056E+00 -0.88944E+00 -0.71056E+00  0.19172E+01
 -0.71056E+00 -0.88944E+00 -0.60000E+00  0.19412E+01
 -0.71056E+00 -0.71056E+00 -0.10000E+01  0.19031E+01
 -0.71056E+00 -0.71056E+00 -0.88944E+00  0.19172E+01
 -0.71056E+00 -0.71056E+00 -0.71056E+00  0.19598E+01
 -0.71056E+00 -0.71056E+00 -0.60000E+00  0.19934E+01
 -0.71056E+00 -0.60000E+00 -0.10000E+01  0.19172E+01
 -0.71056E+00 -0.60000E+00 -0.88944E+00  0.19412E+01
 -0.71056E+00 -0.60000E+00 -0.71056E+00  0.19934E+01
 -0.71056E+00 -0.60000E+00 -0.60000E+00  0.20277E+01
 -0.60000E+00 -0.10000E+01 -0.10000E+01  0.19049E+01
 -0.60000E+00 -0.10000E+01 -0.88944E+00  0.19001E+01
 -0.60000E+00 -0.10000E+01 -0.71056E+00  0.19172E+01
 -0.60000E+00 -0.10000E+01 -0.60000E+00  0.19412E+01
 -0.60000E+00 -0.88944E+00 -0.10000E+01  0.19001E+01
 -0.60000E+00 -0.88944E+00 -0.88944E+00  0.19072E+01
 -0.60000E+00 -0.88944E+00 -0.71056E+00  0.19412E+01
 -0.60000E+00 -0.88944E+00 -0.60000E+00  0.19723E+01
 -0.60000E+00 -0.71056E+00 -0.10000E+01  0.19172E+01
 -0.60000E+00 -0.71056E+00 -0.88944E+00  0.19412E+01
 -0.60000E+00 -0.71056E+00 -0.71056E+00  0.19934E+01
 -0.60000E+00 -0.71056E+00 -0.60000E+00  0.20277E+01
 -0.60000E+00 -0.60000E+00 -0.10000E+01  0.19412E+01
 -0.60000E+00 -0.60000E+00 -0.88944E+00  0.19723E+01
 -0.60000E+00 -0.60000E+00 -0.71056E+00  0.20277E+01
 -0.60000E+00 -0.60000E+00 -0.60000E+00  0.20588E+01
 ZONE I =           4 ,J=           4 ,K=           4 ,F=POINT
 -0.60000E+00 -0.10000E+01 -0.10000E+01  0.19049E+01
 -0.60000E+00 -0.10000E+01 -0.88944E+00  0.19001E+01
 -0.60000E+00 -0.10000E+01 -0.71056E+00  0.19172E+01
 -0.60000E+00 -0.10000E+01 -0.60000E+00  0.19412E+01
 -0.60000E+00 -0.88944E+00 -0.10000E+01  0.19001E+01
 -0.60000E+00 -0.88944E+00 -0.88944E+00  0.19072E+01
 -0.60000E+00 -0.88944E+00 -0.71056E+00  0.19412E+01
 -0.60000E+00 -0.88944E+00 -0.60000E+00  0.19723E+01
 -0.60000E+00 -0.71056E+00 -0.10000E+01  0.19172E+01
 -0.60000E+00 -0.71056E+00 -0.88944E+00  0.19412E+01
 -0.60000E+00 -0.71056E+00 -0.71056E+00  0.19934E+01
 -0.60000E+00 -0.71056E+00 -0.60000E+00  0.20277E+01
 -0.60000E+00 -0.60000E+00 -0.10000E+01  0.19412E+01
 -0.60000E+00 -0.60000E+00 -0.88944E+00  0.19723E+01
 -0.60000E+00 -0.60000E+00 -0.71056E+00  0.20277E+01
 -0.60000E+00 -0.60000E+00 -0.60000E+00  0.20588E+01
 -0.48944E+00 -0.10000E+01 -0.10000E+01  0.19001E+01
 -0.48944E+00 -0.10000E+01 -0.88944E+00  0.19072E+01
 -0.48944E+00 -0.10000E+01 -0.71056E+00  0.19412E+01
 -0.48944E+00 -0.10000E+01 -0.60000E+00  0.19723E+01
 -0.48944E+00 -0.88944E+00 -0.10000E+01  0.19072E+01
 -0.48944E+00 -0.88944E+00 -0.88944E+00  0.19253E+01
 -0.48944E+00 -0.88944E+00 -0.71056E+00  0.19723E+01
 -0.48944E+00 -0.88944E+00 -0.60000E+00  0.20066E+01
 -0.48944E+00 -0.71056E+00 -0.10000E+01  0.19412E+01
 -0.48944E+00 -0.71056E+00 -0.88944E+00  0.19723E+01
 -0.48944E+00 -0.71056E+00 -0.71056E+00  0.20277E+01
 -0.48944E+00 -0.71056E+00 -0.60000E+00  0.20588E+01
 -0.48944E+00 -0.60000E+00 -0.10000E+01  0.19723E+01
 -0.48944E+00 -0.60000E+00 -0.88944E+00  0.20066E+01
 -0.48944E+00 -0.60000E+00 -0.71056E+00  0.20588E+01
 -0.48944E+00 -0.60000E+00 -0.60000E+00  0.20828E+01
 -0.31056E+00 -0.10000E+01 -0.10000E+01  0.19172E+01
 -0.31056E+00 -0.10000E+01 -0.88944E+00  0.19412E+01
 -0.31056E+00 -0.10000E+01 -0.71056E+00  0.19934E+01
 -0.31056E+00 -0.10000E+01 -0.60000E+00  0.20277E+01
 -0.31056E+00 -0.88944E+00 -0.10000E+01  0.19412E+01
 -0.31056E+00 -0.88944E+00 -0.88944E+00  0.19723E+01
 -0.31056E+00 -0.88944E+00 -0.71056E+00  0.20277E+01
 -0.31056E+00 -0.88944E+00 -0.60000E+00  0.20588E+01
 -0.31056E+00 -0.71056E+00 -0.10000E+01  0.19934E+01
 -0.31056E+00 -0.71056E+00 -0.88944E+00  0.20277E+01
 -0.31056E+00 -0.71056E+00 -0.71056E+00  0.20747E+01
 -0.31056E+00 -0.71056E+00 -0.60000E+00  0.20928E+01
 -0.31056E+00 -0.60000E+00 -0.10000E+01  0.20277E+01
 -0.31056E+00 -0.60000E+00 -0.88944E+00  0.20588E+01
 -0.31056E+00 -0.60000E+00 -0.71056E+00  0.20928E+01
 -0.31056E+00 -0.60000E+00 -0.60000E+00  0.20999E+01
 -0.20000E+00 -0.10000E+01 -0.10000E+01  0.19412E+01
 -0.20000E+00 -0.10000E+01 -0.88944E+00  0.19723E+01
 -0.20000E+00 -0.10000E+01 -0.71056E+00  0.20277E+01
 -0.20000E+00 -0.10000E+01 -0.60000E+00  0.20588E+01
 -0.20000E+00 -0.88944E+00 -0.10000E+01  0.19723E+01
 -0.20000E+00 -0.88944E+00 -0.88944E+00  0.20066E+01
 -0.20000E+00 -0.88944E+00 -0.71056E+00  0.20588E+01
 -0.20000E+00 -0.88944E+00 -0.60000E+00  0.20828E+01
 -0.20000E+00 -0.71056E+00 -0.10000E+01  0.20277E+01
 -0.20000E+00 -0.71056E+00 -0.88944E+00  0.20588E+01
 -0.20000E+00 -0.71056E+00 -0.71056E+00  0.20928E+01
 -0.20000E+00 -0.71056E+00 -0.60000E+00  0.20999E+01
 -0.20000E+00 -0.60000E+00 -0.10000E+01  0.20588E+01
 -0.20000E+00 -0.60000E+00 -0.88944E+00  0.20828E+01
 -0.20000E+00 -0.60000E+00 -0.71056E+00  0.20999E+01
 -0.20000E+00 -0.60000E+00 -0.60000E+00  0.20951E+01
 ZONE I =           4 ,J=           4 ,K=           4 ,F=POINT
 -0.20000E+00 -0.10000E+01 -0.10000E+01  0.19412E+01
 -0.20000E+00 -0.10000E+01 -0.88944E+00  0.19723E+01
 -0.20000E+00 -0.10000E+01 -0.71056E+00  0.20277E+01
 -0.20000E+00 -0.10000E+01 -0.60000E+00  0.20588E+01
 -0.20000E+00 -0.88944E+00 -0.10000E+01  0.19723E+01
 -0.20000E+00 -0.88944E+00 -0.88944E+00  0.20066E+01
 -0.20000E+00 -0.88944E+00 -0.71056E+00  0.20588E+01
 -0.20000E+00 -0.88944E+00 -0.60000E+00  0.20828E+01
 -0.20000E+00 -0.71056E+00 -0.10000E+01  0.20277E+01
 -0.20000E+00 -0.71056E+00 -0.88944E+00  0.20588E+01
 -0.20000E+00 -0.71056E+00 -0.71056E+00  0.20928E+01
 -0.20000E+00 -0.71056E+00 -0.60000E+00  0.20999E+01
 -0.20000E+00 -0.60000E+00 -0.10000E+01  0.20588E+01
 -0.20000E+00 -0.60000E+00 -0.88944E+00  0.20828E+01
 -0.20000E+00 -0.60000E+00 -0.71056E+00  0.20999E+01
 -0.20000E+00 -0.60000E+00 -0.60000E+00  0.20951E+01
 -0.89443E-01 -0.10000E+01 -0.10000E+01  0.19723E+01
 -0.89443E-01 -0.10000E+01 -0.88944E+00  0.20066E+01
 -0.89443E-01 -0.10000E+01 -0.71056E+00  0.20588E+01
 -0.89443E-01 -0.10000E+01 -0.60000E+00  0.20828E+01
 -0.89443E-01 -0.88944E+00 -0.10000E+01  0.20066E+01
 -0.89443E-01 -0.88944E+00 -0.88944E+00  0.20402E+01
 -0.89443E-01 -0.88944E+00 -0.71056E+00  0.20828E+01
 -0.89443E-01 -0.88944E+00 -0.60000E+00  0.20969E+01
 -0.89443E-01 -0.71056E+00 -0.10000E+01  0.20588E+01
 -0.89443E-01 -0.71056E+00 -0.88944E+00  0.20828E+01
 -0.89443E-01 -0.71056E+00 -0.71056E+00  0.20999E+01
 -0.89443E-01 -0.71056E+00 -0.60000E+00  0.20951E+01
 -0.89443E-01 -0.60000E+00 -0.10000E+01  0.20828E+01
 -0.89443E-01 -0.60000E+00 -0.88944E+00  0.20969E+01
 -0.89443E-01 -0.60000E+00 -0.71056E+00  0.20951E+01
 -0.89443E-01 -0.60000E+00 -0.60000E+00  0.20789E+01
  0.89443E-01 -0.10000E+01 -0.10000E+01  0.20277E+01
  0.89443E-01 -0.10000E+01 -0.88944E+00  0.20588E+01
  0.89443E-01 -0.10000E+01 -0.71056E+00  0.20928E+01
  0.89443E-01 -0.10000E+01 -0.60000E+00  0.20999E+01
  0.89443E-01 -0.88944E+00 -0.10000E+01  0.20588E+01
  0.89443E-01 -0.88944E+00 -0.88944E+00  0.20828E+01
  0.89443E-01 -0.88944E+00 -0.71056E+00  0.20999E+01
  0.89443E-01 -0.88944E+00 -0.60000E+00  0.20951E+01
  0.89443E-01 -0.71056E+00 -0.10000E+01  0.20928E+01
  0.89443E-01 -0.71056E+00 -0.88944E+00  0.20999E+01
  0.89443E-01 -0.71056E+00 -0.71056E+00  0.20863E+01
  0.89443E-01 -0.71056E+00 -0.60000E+00  0.20640E+01
  0.89443E-01 -0.60000E+00 -0.10000E+01  0.20999E+01
  0.89443E-01 -0.60000E+00 -0.88944E+00  0.20951E+01
  0.89443E-01 -0.60000E+00 -0.71056E+00  0.20640E+01
  0.89443E-01 -0.60000E+00 -0.60000E+00  0.20340E+01
  0.20000E+00 -0.10000E+01 -0.10000E+01  0.20588E+01
  0.20000E+00 -0.10000E+01 -0.88944E+00  0.20828E+01
  0.20000E+00 -0.10000E+01 -0.71056E+00  0.20999E+01
  0.20000E+00 -0.10000E+01 -0.60000E+00  0.20951E+01
  0.20000E+00 -0.88944E+00 -0.10000E+01  0.20828E+01
  0.20000E+00 -0.88944E+00 -0.88944E+00  0.20969E+01
  0.20000E+00 -0.88944E+00 -0.71056E+00  0.20951E+01
  0.20000E+00 -0.88944E+00 -0.60000E+00  0.20789E+01
  0.20000E+00 -0.71056E+00 -0.10000E+01  0.20999E+01
  0.20000E+00 -0.71056E+00 -0.88944E+00  0.20951E+01
  0.20000E+00 -0.71056E+00 -0.71056E+00  0.20640E+01
  0.20000E+00 -0.71056E+00 -0.60000E+00  0.20340E+01
  0.20000E+00 -0.60000E+00 -0.10000E+01  0.20951E+01
  0.20000E+00 -0.60000E+00 -0.88944E+00  0.20789E+01
  0.20000E+00 -0.60000E+00 -0.71056E+00  0.20340E+01
  0.20000E+00 -0.60000E+00 -0.60000E+00  0.20000E+01
 ZONE I =           4 ,J=           4 ,K=           4 ,F=POINT
  0.20000E+00 -0.10000E+01 -0.10000E+01  0.20588E+01
  0.20000E+00 -0.10000E+01 -0.88944E+00  0.20828E+01
  0.20000E+00 -0.10000E+01 -0.71056E+00  0.20999E+01
  0.20000E+00 -0.10000E+01 -0.60000E+00  0.20951E+01
  0.20000E+00 -0.88944E+00 -0.10000E+01  0.20828E+01
  0.20000E+00 -0.88944E+00 -0.88944E+00  0.20969E+01
  0.20000E+00 -0.88944E+00 -0.71056E+00  0.20951E+01
  0.20000E+00 -0.88944E+00 -0.60000E+00  0.20789E+01
  0.20000E+00 -0.71056E+00 -0.10000E+01  0.20999E+01
  0.20000E+00 -0.71056E+00 -0.88944E+00  0.20951E+01
  0.20000E+00 -0.71056E+00 -0.71056E+00  0.20640E+01
  0.20000E+00 -0.71056E+00 -0.60000E+00  0.20340E+01
  0.20000E+00 -0.60000E+00 -0.10000E+01  0.20951E+01
  0.20000E+00 -0.60000E+00 -0.88944E+00  0.20789E+01
  0.20000E+00 -0.60000E+00 -0.71056E+00  0.20340E+01
  0.20000E+00 -0.60000E+00 -0.60000E+00  0.20000E+01
  0.31056E+00 -0.10000E+01 -0.10000E+01  0.20828E+01
  0.31056E+00 -0.10000E+01 -0.88944E+00  0.20969E+01
  0.31056E+00 -0.10000E+01 -0.71056E+00  0.20951E+01
  0.31056E+00 -0.10000E+01 -0.60000E+00  0.20789E+01
  0.31056E+00 -0.88944E+00 -0.10000E+01  0.20969E+01
  0.31056E+00 -0.88944E+00 -0.88944E+00  0.20995E+01
  0.31056E+00 -0.88944E+00 -0.71056E+00  0.20789E+01
  0.31056E+00 -0.88944E+00 -0.60000E+00  0.20533E+01
  0.31056E+00 -0.71056E+00 -0.10000E+01  0.20951E+01
  0.31056E+00 -0.71056E+00 -0.88944E+00  0.20789E+01
  0.31056E+00 -0.71056E+00 -0.71056E+00  0.20340E+01
  0.31056E+00 -0.71056E+00 -0.60000E+00  0.20000E+01
  0.31056E+00 -0.60000E+00 -0.10000E+01  0.20789E+01
  0.31056E+00 -0.60000E+00 -0.88944E+00  0.20533E+01
  0.31056E+00 -0.60000E+00 -0.71056E+00  0.20000E+01
  0.31056E+00 -0.60000E+00 -0.60000E+00  0.19660E+01
  0.48944E+00 -0.10000E+01 -0.10000E+01  0.20999E+01
  0.48944E+00 -0.10000E+01 -0.88944E+00  0.20951E+01
  0.48944E+00 -0.10000E+01 -0.71056E+00  0.20640E+01
  0.48944E+00 -0.10000E+01 -0.60000E+00  0.20340E+01
  0.48944E+00 -0.88944E+00 -0.10000E+01  0.20951E+01
  0.48944E+00 -0.88944E+00 -0.88944E+00  0.20789E+01
  0.48944E+00 -0.88944E+00 -0.71056E+00  0.20340E+01
  0.48944E+00 -0.88944E+00 -0.60000E+00  0.20000E+01
  0.48944E+00 -0.71056E+00 -0.10000E+01  0.20640E+01
  0.48944E+00 -0.71056E+00 -0.88944E+00  0.20340E+01
  0.48944E+00 -0.71056E+00 -0.71056E+00  0.19787E+01
  0.48944E+00 -0.71056E+00 -0.60000E+00  0.19467E+01
  0.48944E+00 -0.60000E+00 -0.10000E+01  0.20340E+01
  0.48944E+00 -0.60000E+00 -0.88944E+00  0.20000E+01
  0.48944E+00 -0.60000E+00 -0.71056E+00  0.19467E+01
  0.48944E+00 -0.60000E+00 -0.60000E+00  0.19211E+01
  0.60000E+00 -0.10000E+01 -0.10000E+01  0.20951E+01
  0.60000E+00 -0.10000E+01 -0.88944E+00  0.20789E+01
  0.60000E+00 -0.10000E+01 -0.71056E+00  0.20340E+01
  0.60000E+00 -0.10000E+01 -0.60000E+00  0.20000E+01
  0.60000E+00 -0.88944E+00 -0.10000E+01  0.20789E+01
  0.60000E+00 -0.88944E+00 -0.88944E+00  0.20533E+01
  0.60000E+00 -0.88944E+00 -0.71056E+00  0.20000E+01
  0.60000E+00 -0.88944E+00 -0.60000E+00  0.19660E+01
  0.60000E+00 -0.71056E+00 -0.10000E+01  0.20340E+01
  0.60000E+00 -0.71056E+00 -0.88944E+00  0.20000E+01
  0.60000E+00 -0.71056E+00 -0.71056E+00  0.19467E+01
  0.60000E+00 -0.71056E+00 -0.60000E+00  0.19211E+01
  0.60000E+00 -0.60000E+00 -0.10000E+01  0.20000E+01
  0.60000E+00 -0.60000E+00 -0.88944E+00  0.19660E+01
  0.60000E+00 -0.60000E+00 -0.71056E+00  0.19211E+01
  0.60000E+00 -0.60000E+00 -0.60000E+00  0.19049E+01
 ZONE I =           4 ,J=           4 ,K=           4 ,F=POINT
  0.60000E+00 -0.10000E+01 -0.10000E+01  0.20951E+01
  0.60000E+00 -0.10000E+01 -0.88944E+00  0.20789E+01
  0.60000E+00 -0.10000E+01 -0.71056E+00  0.20340E+01
  0.60000E+00 -0.10000E+01 -0.60000E+00  0.20000E+01
  0.60000E+00 -0.88944E+00 -0.10000E+01  0.20789E+01
  0.60000E+00 -0.88944E+00 -0.88944E+00  0.20533E+01
  0.60000E+00 -0.88944E+00 -0.71056E+00  0.20000E+01
  0.60000E+00 -0.88944E+00 -0.60000E+00  0.19660E+01
  0.60000E+00 -0.71056E+00 -0.10000E+01  0.20340E+01
  0.60000E+00 -0.71056E+00 -0.88944E+00  0.20000E+01
  0.60000E+00 -0.71056E+00 -0.71056E+00  0.19467E+01
  0.60000E+00 -0.71056E+00 -0.60000E+00  0.19211E+01
  0.60000E+00 -0.60000E+00 -0.10000E+01  0.20000E+01
  0.60000E+00 -0.60000E+00 -0.88944E+00  0.19660E+01
  0.60000E+00 -0.60000E+00 -0.71056E+00  0.19211E+01
  0.60000E+00 -0.60000E+00 -0.60000E+00  0.19049E+01
  0.71056E+00 -0.10000E+01 -0.10000E+01  0.20789E+01
  0.71056E+00 -0.10000E+01 -0.88944E+00  0.20533E+01
  0.71056E+00 -0.10000E+01 -0.71056E+00  0.20000E+01
  0.71056E+00 -0.10000E+01 -0.60000E+00  0.19660E+01
  0.71056E+00 -0.88944E+00 -0.10000E+01  0.20533E+01
  0.71056E+00 -0.88944E+00 -0.88944E+00  0.20213E+01
  0.71056E+00 -0.88944E+00 -0.71056E+00  0.19660E+01
  0.71056E+00 -0.88944E+00 -0.60000E+00  0.19360E+01
  0.71056E+00 -0.71056E+00 -0.10000E+01  0.20000E+01
  0.71056E+00 -0.71056E+00 -0.88944E+00  0.19660E+01
  0.71056E+00 -0.71056E+00 -0.71056E+00  0.19211E+01
  0.71056E+00 -0.71056E+00 -0.60000E+00  0.19049E+01
  0.71056E+00 -0.60000E+00 -0.10000E+01  0.19660E+01
  0.71056E+00 -0.60000E+00 -0.88944E+00  0.19360E+01
  0.71056E+00 -0.60000E+00 -0.71056E+00  0.19049E+01
  0.71056E+00 -0.60000E+00 -0.60000E+00  0.19001E+01
  0.88944E+00 -0.10000E+01 -0.10000E+01  0.20340E+01
  0.88944E+00 -0.10000E+01 -0.88944E+00  0.20000E+01
  0.88944E+00 -0.10000E+01 -0.71056E+00  0.19467E+01
  0.88944E+00 -0.10000E+01 -0.60000E+00  0.19211E+01
  0.88944E+00 -0.88944E+00 -0.10000E+01  0.20000E+01
  0.88944E+00 -0.88944E+00 -0.88944E+00  0.19660E+01
  0.88944E+00 -0.88944E+00 -0.71056E+00  0.19211E+01
  0.88944E+00 -0.88944E+00 -0.60000E+00  0.19049E+01
  0.88944E+00 -0.71056E+00 -0.10000E+01  0.19467E+01
  0.88944E+00 -0.71056E+00 -0.88944E+00  0.19211E+01
  0.88944E+00 -0.71056E+00 -0.71056E+00  0.19005E+01
  0.88944E+00 -0.71056E+00 -0.60000E+00  0.19031E+01
  0.88944E+00 -0.60000E+00 -0.10000E+01  0.19211E+01
  0.88944E+00 -0.60000E+00 -0.88944E+00  0.19049E+01
  0.88944E+00 -0.60000E+00 -0.71056E+00  0.19031E+01
  0.88944E+00 -0.60000E+00 -0.60000E+00  0.19172E+01
  0.10000E+01 -0.10000E+01 -0.10000E+01  0.20000E+01
  0.10000E+01 -0.10000E+01 -0.88944E+00  0.19660E+01
  0.10000E+01 -0.10000E+01 -0.71056E+00  0.19211E+01
  0.10000E+01 -0.10000E+01 -0.60000E+00  0.19049E+01
  0.10000E+01 -0.88944E+00 -0.10000E+01  0.19660E+01
  0.10000E+01 -0.88944E+00 -0.88944E+00  0.19360E+01
  0.10000E+01 -0.88944E+00 -0.71056E+00  0.19049E+01
  0.10000E+01 -0.88944E+00 -0.60000E+00  0.19001E+01
  0.10000E+01 -0.71056E+00 -0.10000E+01  0.19211E+01
  0.10000E+01 -0.71056E+00 -0.88944E+00  0.19049E+01
  0.10000E+01 -0.71056E+00 -0.71056E+00  0.19031E+01
  0.10000E+01 -0.71056E+00 -0.60000E+00  0.19172E+01
  0.10000E+01 -0.60000E+00 -0.10000E+01  0.19049E+01
  0.10000E+01 -0.60000E+00 -0.88944E+00  0.19001E+01
  0.10000E+01 -0.60000E+00 -0.71056E+00  0.19172E+01
  0.10000E+01 -0.60000E+00 -0.60000E+00  0.19412E+01
 ZONE I =           4 ,J=           4 ,K=           4 ,F=POINT
 -0.10000E+01 -0.60000E+00 -0.10000E+01  0.19049E+01
 -0.10000E+01 -0.60000E+00 -0.88944E+00  0.19001E+01
 -0.10000E+01 -0.60000E+00 -0.71056E+00  0.19172E+01
 -0.10000E+01 -0.60000E+00 -0.60000E+00  0.19412E+01
 -0.10000E+01 -0.48944E+00 -0.10000E+01  0.19001E+01
 -0.10000E+01 -0.48944E+00 -0.88944E+00  0.19072E+01
 -0.10000E+01 -0.48944E+00 -0.71056E+00  0.19412E+01
 -0.10000E+01 -0.48944E+00 -0.60000E+00  0.19723E+01
 -0.10000E+01 -0.31056E+00 -0.10000E+01  0.19172E+01
 -0.10000E+01 -0.31056E+00 -0.88944E+00  0.19412E+01
 -0.10000E+01 -0.31056E+00 -0.71056E+00  0.19934E+01
 -0.10000E+01 -0.31056E+00 -0.60000E+00  0.20277E+01
 -0.10000E+01 -0.20000E+00 -0.10000E+01  0.19412E+01
 -0.10000E+01 -0.20000E+00 -0.88944E+00  0.19723E+01
 -0.10000E+01 -0.20000E+00 -0.71056E+00  0.20277E+01
 -0.10000E+01 -0.20000E+00 -0.60000E+00  0.20588E+01
 -0.88944E+00 -0.60000E+00 -0.10000E+01  0.19001E+01
 -0.88944E+00 -0.60000E+00 -0.88944E+00  0.19072E+01
 -0.88944E+00 -0.60000E+00 -0.71056E+00  0.19412E+01
 -0.88944E+00 -0.60000E+00 -0.60000E+00  0.19723E+01
 -0.88944E+00 -0.48944E+00 -0.10000E+01  0.19072E+01
 -0.88944E+00 -0.48944E+00 -0.88944E+00  0.19253E+01
 -0.88944E+00 -0.48944E+00 -0.71056E+00  0.19723E+01
 -0.88944E+00 -0.48944E+00 -0.60000E+00  0.20066E+01
 -0.88944E+00 -0.31056E+00 -0.10000E+01  0.19412E+01
 -0.88944E+00 -0.31056E+00 -0.88944E+00  0.19723E+01
 -0.88944E+00 -0.31056E+00 -0.71056E+00  0.20277E+01
 -0.88944E+00 -0.31056E+00 -0.60000E+00  0.20588E+01
 -0.88944E+00 -0.20000E+00 -0.10000E+01  0.19723E+01
 -0.88944E+00 -0.20000E+00 -0.88944E+00  0.20066E+01
 -0.88944E+00 -0.20000E+00 -0.71056E+00  0.20588E+01
 -0.88944E+00 -0.20000E+00 -0.60000E+00  0.20828E+01
 -0.71056E+00 -0.60000E+00 -0.10000E+01  0.19172E+01
 -0.71056E+00 -0.60000E+00 -0.88944E+00  0.19412E+01
 -0.71056E+00 -0.60000E+00 -0.71056E+00  0.19934E+01
 -0.71056E+00 -0.60000E+00 -0.60000E+00  0.20277E+01
 -0.71056E+00 -0.48944E+00 -0.10000E+01  0.19412E+01
 -0.71056E+00 -0.48944E+00 -0.88944E+00  0.19723E+01
 -0.71056E+00 -0.48944E+00 -0.71056E+00  0.20277E+01
 -0.71056E+00 -0.48944E+00 -0.60000E+00  0.20588E+01
 -0.71056E+00 -0.31056E+00 -0.10000E+01  0.19934E+01
 -0.71056E+00 -0.31056E+00 -0.88944E+00  0.20277E+01
 -0.71056E+00 -0.31056E+00 -0.71056E+00  0.20747E+01
 -0.71056E+00 -0.31056E+00 -0.60000E+00  0.20928E+01
 -0.71056E+00 -0.20000E+00 -0.10000E+01  0.20277E+01
 -0.71056E+00 -0.20000E+00 -0.88944E+00  0.20588E+01
 -0.71056E+00 -0.20000E+00 -0.71056E+00  0.20928E+01
 -0.71056E+00 -0.20000E+00 -0.60000E+00  0.20999E+01
 -0.60000E+00 -0.60000E+00 -0.10000E+01  0.19412E+01
 -0.60000E+00 -0.60000E+00 -0.88944E+00  0.19723E+01
 -0.60000E+00 -0.60000E+00 -0.71056E+00  0.20277E+01
 -0.60000E+00 -0.60000E+00 -0.60000E+00  0.20588E+01
 -0.60000E+00 -0.48944E+00 -0.10000E+01  0.19723E+01
 -0.60000E+00 -0.48944E+00 -0.88944E+00  0.20066E+01
 -0.60000E+00 -0.48944E+00 -0.71056E+00  0.20588E+01
 -0.60000E+00 -0.48944E+00 -0.60000E+00  0.20828E+01
 -0.60000E+00 -0.31056E+00 -0.10000E+01  0.20277E+01
 -0.60000E+00 -0.31056E+00 -0.88944E+00  0.20588E+01
 -0.60000E+00 -0.31056E+00 -0.71056E+00  0.20928E+01
 -0.60000E+00 -0.31056E+00 -0.60000E+00  0.20999E+01
 -0.60000E+00 -0.20000E+00 -0.10000E+01  0.20588E+01
 -0.60000E+00 -0.20000E+00 -0.88944E+00  0.20828E+01
 -0.60000E+00 -0.20000E+00 -0.71056E+00  0.20999E+01
 -0.60000E+00 -0.20000E+00 -0.60000E+00  0.20951E+01
 ZONE I =           4 ,J=           4 ,K=           4 ,F=POINT
 -0.60000E+00 -0.60000E+00 -0.10000E+01  0.19412E+01
 -0.60000E+00 -0.60000E+00 -0.88944E+00  0.19723E+01
 -0.60000E+00 -0.60000E+00 -0.71056E+00  0.20277E+01
 -0.60000E+00 -0.60000E+00 -0.60000E+00  0.20588E+01
 -0.60000E+00 -0.48944E+00 -0.10000E+01  0.19723E+01
 -0.60000E+00 -0.48944E+00 -0.88944E+00  0.20066E+01
 -0.60000E+00 -0.48944E+00 -0.71056E+00  0.20588E+01
 -0.60000E+00 -0.48944E+00 -0.60000E+00  0.20828E+01
 -0.60000E+00 -0.31056E+00 -0.10000E+01  0.20277E+01
 -0.60000E+00 -0.31056E+00 -0.88944E+00  0.20588E+01
 -0.60000E+00 -0.31056E+00 -0.71056E+00  0.20928E+01
 -0.60000E+00 -0.31056E+00 -0.60000E+00  0.20999E+01
 -0.60000E+00 -0.20000E+00 -0.10000E+01  0.20588E+01
 -0.60000E+00 -0.20000E+00 -0.88944E+00  0.20828E+01
 -0.60000E+00 -0.20000E+00 -0.71056E+00  0.20999E+01
 -0.60000E+00 -0.20000E+00 -0.60000E+00  0.20951E+01
 -0.48944E+00 -0.60000E+00 -0.10000E+01  0.19723E+01
 -0.48944E+00 -0.60000E+00 -0.88944E+00  0.20066E+01
 -0.48944E+00 -0.60000E+00 -0.71056E+00  0.20588E+01
 -0.48944E+00 -0.60000E+00 -0.60000E+00  0.20828E+01
 -0.48944E+00 -0.48944E+00 -0.10000E+01  0.20066E+01
 -0.48944E+00 -0.48944E+00 -0.88944E+00  0.20402E+01
 -0.48944E+00 -0.48944E+00 -0.71056E+00  0.20828E+01
 -0.48944E+00 -0.48944E+00 -0.60000E+00  0.20969E+01
 -0.48944E+00 -0.31056E+00 -0.10000E+01  0.20588E+01
 -0.48944E+00 -0.31056E+00 -0.88944E+00  0.20828E+01
 -0.48944E+00 -0.31056E+00 -0.71056E+00  0.20999E+01
 -0.48944E+00 -0.31056E+00 -0.60000E+00  0.20951E+01
 -0.48944E+00 -0.20000E+00 -0.10000E+01  0.20828E+01
 -0.48944E+00 -0.20000E+00 -0.88944E+00  0.20969E+01
 -0.48944E+00 -0.20000E+00 -0.71056E+00  0.20951E+01
 -0.48944E+00 -0.20000E+00 -0.60000E+00  0.20789E+01
 -0.31056E+00 -0.60000E+00 -0.10000E+01  0.20277E+01
 -0.31056E+00 -0.60000E+00 -0.88944E+00  0.20588E+01
 -0.31056E+00 -0.60000E+00 -0.71056E+00  0.20928E+01
 -0.31056E+00 -0.60000E+00 -0.60000E+00  0.20999E+01
 -0.31056E+00 -0.48944E+00 -0.10000E+01  0.20588E+01
 -0.31056E+00 -0.48944E+00 -0.88944E+00  0.20828E+01
 -0.31056E+00 -0.48944E+00 -0.71056E+00  0.20999E+01
 -0.31056E+00 -0.48944E+00 -0.60000E+00  0.20951E+01
 -0.31056E+00 -0.31056E+00 -0.10000E+01  0.20928E+01
 -0.31056E+00 -0.31056E+00 -0.88944E+00  0.20999E+01
 -0.31056E+00 -0.31056E+00 -0.71056E+00  0.20863E+01
 -0.31056E+00 -0.31056E+00 -0.60000E+00  0.20640E+01
 -0.31056E+00 -0.20000E+00 -0.10000E+01  0.20999E+01
 -0.31056E+00 -0.20000E+00 -0.88944E+00  0.20951E+01
 -0.31056E+00 -0.20000E+00 -0.71056E+00  0.20640E+01
 -0.31056E+00 -0.20000E+00 -0.60000E+00  0.20340E+01
 -0.20000E+00 -0.60000E+00 -0.10000E+01  0.20588E+01
 -0.20000E+00 -0.60000E+00 -0.88944E+00  0.20828E+01
 -0.20000E+00 -0.60000E+00 -0.71056E+00  0.20999E+01
 -0.20000E+00 -0.60000E+00 -0.60000E+00  0.20951E+01
 -0.20000E+00 -0.48944E+00 -0.10000E+01  0.20828E+01
 -0.20000E+00 -0.48944E+00 -0.88944E+00  0.20969E+01
 -0.20000E+00 -0.48944E+00 -0.71056E+00  0.20951E+01
 -0.20000E+00 -0.48944E+00 -0.60000E+00  0.20789E+01
 -0.20000E+00 -0.31056E+00 -0.10000E+01  0.20999E+01
 -0.20000E+00 -0.31056E+00 -0.88944E+00  0.20951E+01
 -0.20000E+00 -0.31056E+00 -0.71056E+00  0.20640E+01
 -0.20000E+00 -0.31056E+00 -0.60000E+00  0.20340E+01
 -0.20000E+00 -0.20000E+00 -0.10000E+01  0.20951E+01
 -0.20000E+00 -0.20000E+00 -0.88944E+00  0.20789E+01
 -0.20000E+00 -0.20000E+00 -0.71056E+00  0.20340E+01
 -0.20000E+00 -0.20000E+00 -0.60000E+00  0.20000E+01
 ZONE I =           4 ,J=           4 ,K=           4 ,F=POINT
 -0.20000E+00 -0.60000E+00 -0.10000E+01  0.20588E+01
 -0.20000E+00 -0.60000E+00 -0.88944E+00  0.20828E+01
 -0.20000E+00 -0.60000E+00 -0.71056E+00  0.20999E+01
 -0.20000E+00 -0.60000E+00 -0.60000E+00  0.20951E+01
 -0.20000E+00 -0.48944E+00 -0.10000E+01  0.20828E+01
 -0.20000E+00 -0.48944E+00 -0.88944E+00  0.20969E+01
 -0.20000E+00 -0.48944E+00 -0.71056E+00  0.20951E+01
 -0.20000E+00 -0.48944E+00 -0.60000E+00  0.20789E+01
 -0.20000E+00 -0.31056E+00 -0.10000E+01  0.20999E+01
 -0.20000E+00 -0.31056E+00 -0.88944E+00  0.20951E+01
 -0.20000E+00 -0.31056E+00 -0.71056E+00  0.20640E+01
 -0.20000E+00 -0.31056E+00 -0.60000E+00  0.20340E+01
 -0.20000E+00 -0.20000E+00 -0.10000E+01  0.20951E+01
 -0.20000E+00 -0.20000E+00 -0.88944E+00  0.20789E+01
 -0.20000E+00 -0.20000E+00 -0.71056E+00  0.20340E+01
 -0.20000E+00 -0.20000E+00 -0.60000E+00  0.20000E+01
 -0.89443E-01 -0.60000E+00 -0.10000E+01  0.20828E+01
 -0.89443E-01 -0.60000E+00 -0.88944E+00  0.20969E+01
 -0.89443E-01 -0.60000E+00 -0.71056E+00  0.20951E+01
 -0.89443E-01 -0.60000E+00 -0.60000E+00  0.20789E+01
 -0.89443E-01 -0.48944E+00 -0.10000E+01  0.20969E+01
 -0.89443E-01 -0.48944E+00 -0.88944E+00  0.20995E+01
 -0.89443E-01 -0.48944E+00 -0.71056E+00  0.20789E+01
 -0.89443E-01 -0.48944E+00 -0.60000E+00  0.20533E+01
 -0.89443E-01 -0.31056E+00 -0.10000E+01  0.20951E+01
 -0.89443E-01 -0.31056E+00 -0.88944E+00  0.20789E+01
 -0.89443E-01 -0.31056E+00 -0.71056E+00  0.20340E+01
 -0.89443E-01 -0.31056E+00 -0.60000E+00  0.20000E+01
 -0.89443E-01 -0.20000E+00 -0.10000E+01  0.20789E+01
 -0.89443E-01 -0.20000E+00 -0.88944E+00  0.20533E+01
 -0.89443E-01 -0.20000E+00 -0.71056E+00  0.20000E+01
 -0.89443E-01 -0.20000E+00 -0.60000E+00  0.19660E+01
  0.89443E-01 -0.60000E+00 -0.10000E+01  0.20999E+01
  0.89443E-01 -0.60000E+00 -0.88944E+00  0.20951E+01
  0.89443E-01 -0.60000E+00 -0.71056E+00  0.20640E+01
  0.89443E-01 -0.60000E+00 -0.60000E+00  0.20340E+01
  0.89443E-01 -0.48944E+00 -0.10000E+01  0.20951E+01
  0.89443E-01 -0.48944E+00 -0.88944E+00  0.20789E+01
  0.89443E-01 -0.48944E+00 -0.71056E+00  0.20340E+01
  0.89443E-01 -0.48944E+00 -0.60000E+00  0.20000E+01
  0.89443E-01 -0.31056E+00 -0.10000E+01  0.20640E+01
  0.89443E-01 -0.31056E+00 -0.88944E+00  0.20340E+01
  0.89443E-01 -0.31056E+00 -0.71056E+00  0.19787E+01
  0.89443E-01 -0.31056E+00 -0.60000E+00  0.19467E+01
  0.89443E-01 -0.20000E+00 -0.10000E+01  0.20340E+01
  0.89443E-01 -0.20000E+00 -0.88944E+00  0.20000E+01
  0.89443E-01 -0.20000E+00 -0.71056E+00  0.19467E+01
  0.89443E-01 -0.20000E+00 -0.60000E+00  0.19211E+01
  0.20000E+00 -0.60000E+00 -0.10000E+01  0.20951E+01
  0.20000E+00 -0.60000E+00 -0.88944E+00  0.20789E+01
  0.20000E+00 -0.60000E+00 -0.71056E+00  0.20340E+01
  0.20000E+00 -0.60000E+00 -0.60000E+00  0.20000E+01
  0.20000E+00 -0.48944E+00 -0.10000E+01  0.20789E+01
  0.20000E+00 -0.48944E+00 -0.88944E+00  0.20533E+01
  0.20000E+00 -0.48944E+00 -0.71056E+00  0.20000E+01
  0.20000E+00 -0.48944E+00 -0.60000E+00  0.19660E+01
  0.20000E+00 -0.31056E+00 -0.10000E+01  0.20340E+01
  0.20000E+00 -0.31056E+00 -0.88944E+00  0.20000E+01
  0.20000E+00 -0.31056E+00 -0.71056E+00  0.19467E+01
  0.20000E+00 -0.31056E+00 -0.60000E+00  0.19211E+01
  0.20000E+00 -0.20000E+00 -0.10000E+01  0.20000E+01
  0.20000E+00 -0.20000E+00 -0.88944E+00  0.19660E+01
  0.20000E+00 -0.20000E+00 -0.71056E+00  0.19211E+01
  0.20000E+00 -0.20000E+00 -0.60000E+00  0.19049E+01
 ZONE I =           4 ,J=           4 ,K=           4 ,F=POINT
  0.20000E+00 -0.60000E+00 -0.10000E+01  0.20951E+01
  0.20000E+00 -0.60000E+00 -0.88944E+00  0.20789E+01
  0.20000E+00 -0.60000E+00 -0.71056E+00  0.20340E+01
  0.20000E+00 -0.60000E+00 -0.60000E+00  0.20000E+01
  0.20000E+00 -0.48944E+00 -0.10000E+01  0.20789E+01
  0.20000E+00 -0.48944E+00 -0.88944E+00  0.20533E+01
  0.20000E+00 -0.48944E+00 -0.71056E+00  0.20000E+01
  0.20000E+00 -0.48944E+00 -0.60000E+00  0.19660E+01
  0.20000E+00 -0.31056E+00 -0.10000E+01  0.20340E+01
  0.20000E+00 -0.31056E+00 -0.88944E+00  0.20000E+01
  0.20000E+00 -0.31056E+00 -0.71056E+00  0.19467E+01
  0.20000E+00 -0.31056E+00 -0.60000E+00  0.19211E+01
  0.20000E+00 -0.20000E+00 -0.10000E+01  0.20000E+01
  0.20000E+00 -0.20000E+00 -0.88944E+00  0.19660E+01
  0.20000E+00 -0.20000E+00 -0.71056E+00  0.19211E+01
  0.20000E+00 -0.20000E+00 -0.60000E+00  0.19049E+01
  0.31056E+00 -0.60000E+00 -0.10000E+01  0.20789E+01
  0.31056E+00 -0.60000E+00 -0.88944E+00  0.20533E+01
  0.31056E+00 -0.60000E+00 -0.71056E+00  0.20000E+01
  0.31056E+00 -0.60000E+00 -0.60000E+00  0.19660E+01
  0.31056E+00 -0.48944E+00 -0.10000E+01  0.20533E+01
  0.31056E+00 -0.48944E+00 -0.88944E+00  0.20213E+01
  0.31056E+00 -0.48944E+00 -0.71056E+00  0.19660E+01
  0.31056E+00 -0.48944E+00 -0.60000E+00  0.19360E+01
  0.31056E+00 -0.31056E+00 -0.10000E+01  0.20000E+01
  0.31056E+00 -0.31056E+00 -0.88944E+00  0.19660E+01
  0.31056E+00 -0.31056E+00 -0.71056E+00  0.19211E+01
  0.31056E+00 -0.31056E+00 -0.60000E+00  0.19049E+01
  0.31056E+00 -0.20000E+00 -0.10000E+01  0.19660E+01
  0.31056E+00 -0.20000E+00 -0.88944E+00  0.19360E+01
  0.31056E+00 -0.20000E+00 -0.71056E+00  0.19049E+01
  0.31056E+00 -0.20000E+00 -0.60000E+00  0.19001E+01
  0.48944E+00 -0.60000E+00 -0.10000E+01  0.20340E+01
  0.48944E+00 -0.60000E+00 -0.88944E+00  0.20000E+01
  0.48944E+00 -0.60000E+00 -0.71056E+00  0.19467E+01
  0.48944E+00 -0.60000E+00 -0.60000E+00  0.19211E+01
  0.48944E+00 -0.48944E+00 -0.10000E+01  0.20000E+01
  0.48944E+00 -0.48944E+00 -0.88944E+00  0.19660E+01
  0.48944E+00 -0.48944E+00 -0.71056E+00  0.19211E+01
  0.48944E+00 -0.48944E+00 -0.60000E+00  0.19049E+01
  0.48944E+00 -0.31056E+00 -0.10000E+01  0.19467E+01
  0.48944E+00 -0.31056E+00 -0.88944E+00  0.19211E+01