 TITLE = "rhosolution.tec"
 VARIABLES = "x","y","z","rho"
 ZONE I =           4 ,J=           4 ,K=           4 ,F=POINT
 -0.10000E+01 -0.10000E+01 -0.10000E+01  0.20000E+01
 -0.10000E+01 -0.10000E+01 -0.93090E+00  0.19785E+01
 -0.10000E+01 -0.10000E+01 -0.81910E+00  0.19462E+01
 -0.10000E+01 -0.10000E+01 -0.75000E+00  0.19293E+01
 -0.10000E+01 -0.93090E+00 -0.10000E+01  0.19785E+01
 -0.10000E+01 -0.93090E+00 -0.93090E+00  0.19579E+01
 -0.10000E+01 -0.93090E+00 -0.81910E+00  0.19293E+01
 -0.10000E+01 -0.93090E+00 -0.75000E+00  0.19157E+01
 -0.10000E+01 -0.81910E+00 -0.10000E+01  0.19462E+01
 -0.10000E+01 -0.81910E+00 -0.93090E+00  0.19293E+01
 -0.10000E+01 -0.81910E+00 -0.81910E+00  0.19093E+01
 -0.10000E+01 -0.81910E+00 -0.75000E+00  0.19023E+01
 -0.10000E+01 -0.75000E+00 -0.10000E+01  0.19293E+01
 -0.10000E+01 -0.75000E+00 -0.93090E+00  0.19157E+01
 -0.10000E+01 -0.75000E+00 -0.81910E+00  0.19023E+01
 -0.10000E+01 -0.75000E+00 -0.75000E+00  0.19000E+01
 -0.93090E+00 -0.10000E+01 -0.10000E+01  0.19785E+01
 -0.93090E+00 -0.10000E+01 -0.93090E+00  0.19579E+01
 -0.93090E+00 -0.10000E+01 -0.81910E+00  0.19293E+01
 -0.93090E+00 -0.10000E+01 -0.75000E+00  0.19157E+01
 -0.93090E+00 -0.93090E+00 -0.10000E+01  0.19579E+01
 -0.93090E+00 -0.93090E+00 -0.93090E+00  0.19394E+01
 -0.93090E+00 -0.93090E+00 -0.81910E+00  0.19157E+01
 -0.93090E+00 -0.93090E+00 -0.75000E+00  0.19061E+01
 -0.93090E+00 -0.81910E+00 -0.10000E+01  0.19293E+01
 -0.93090E+00 -0.81910E+00 -0.93090E+00  0.19157E+01
 -0.93090E+00 -0.81910E+00 -0.81910E+00  0.19023E+01
 -0.93090E+00 -0.81910E+00 -0.75000E+00  0.19000E+01
 -0.93090E+00 -0.75000E+00 -0.10000E+01  0.19157E+01
 -0.93090E+00 -0.75000E+00 -0.93090E+00  0.19061E+01
 -0.93090E+00 -0.75000E+00 -0.81910E+00  0.19000E+01
 -0.93090E+00 -0.75000E+00 -0.75000E+00  0.19023E+01
 -0.81910E+00 -0.10000E+01 -0.10000E+01  0.19462E+01
 -0.81910E+00 -0.10000E+01 -0.93090E+00  0.19293E+01
 -0.81910E+00 -0.10000E+01 -0.81910E+00  0.19093E+01
 -0.81910E+00 -0.10000E+01 -0.75000E+00  0.19023E+01
 -0.81910E+00 -0.93090E+00 -0.10000E+01  0.19293E+01
 -0.81910E+00 -0.93090E+00 -0.93090E+00  0.19157E+01
 -0.81910E+00 -0.93090E+00 -0.81910E+00  0.19023E+01
 -0.81910E+00 -0.93090E+00 -0.75000E+00  0.19000E+01
 -0.81910E+00 -0.81910E+00 -0.10000E+01  0.19093E+01
 -0.81910E+00 -0.81910E+00 -0.93090E+00  0.19023E+01
 -0.81910E+00 -0.81910E+00 -0.81910E+00  0.19009E+01
 -0.81910E+00 -0.81910E+00 -0.75000E+00  0.19061E+01
 -0.81910E+00 -0.75000E+00 -0.10000E+01  0.19023E+01
 -0.81910E+00 -0.75000E+00 -0.93090E+00  0.19000E+01
 -0.81910E+00 -0.75000E+00 -0.81910E+00  0.19061E+01
 -0.81910E+00 -0.75000E+00 -0.75000E+00  0.19157E+01
 -0.75000E+00 -0.10000E+01 -0.10000E+01  0.19293E+01
 -0.75000E+00 -0.10000E+01 -0.93090E+00  0.19157E+01
 -0.75000E+00 -0.10000E+01 -0.81910E+00  0.19023E+01
 -0.75000E+00 -0.10000E+01 -0.75000E+00  0.19000E+01
 -0.75000E+00 -0.93090E+00 -0.10000E+01  0.19157E+01
 -0.75000E+00 -0.93090E+00 -0.93090E+00  0.19061E+01
 -0.75000E+00 -0.93090E+00 -0.81910E+00  0.19000E+01
 -0.75000E+00 -0.93090E+00 -0.75000E+00  0.19023E+01
 -0.75000E+00 -0.81910E+00 -0.10000E+01  0.19023E+01
 -0.75000E+00 -0.81910E+00 -0.93090E+00  0.19000E+01
 -0.75000E+00 -0.81910E+00 -0.81910E+00  0.19061E+01
 -0.75000E+00 -0.81910E+00 -0.75000E+00  0.19157E+01
 -0.75000E+00 -0.75000E+00 -0.10000E+01  0.19000E+01
 -0.75000E+00 -0.75000E+00 -0.93090E+00  0.19023E+01
 -0.75000E+00 -0.75000E+00 -0.81910E+00  0.19157E+01
 -0.75000E+00 -0.75000E+00 -0.75000E+00  0.19293E+01
 ZONE I =           4 ,J=           4 ,K=           4 ,F=POINT
 -0.75000E+00 -0.10000E+01 -0.10000E+01  0.19293E+01
 -0.75000E+00 -0.10000E+01 -0.93090E+00  0.19157E+01
 -0.75000E+00 -0.10000E+01 -0.81910E+00  0.19023E+01
 -0.75000E+00 -0.10000E+01 -0.75000E+00  0.19000E+01
 -0.75000E+00 -0.93090E+00 -0.10000E+01  0.19157E+01
 -0.75000E+00 -0.93090E+00 -0.93090E+00  0.19061E+01
 -0.75000E+00 -0.93090E+00 -0.81910E+00  0.19000E+01
 -0.75000E+00 -0.93090E+00 -0.75000E+00  0.19023E+01
 -0.75000E+00 -0.81910E+00 -0.10000E+01  0.19023E+01
 -0.75000E+00 -0.81910E+00 -0.93090E+00  0.19000E+01
 -0.75000E+00 -0.81910E+00 -0.81910E+00  0.19061E+01
 -0.75000E+00 -0.81910E+00 -0.75000E+00  0.19157E+01
 -0.75000E+00 -0.75000E+00 -0.10000E+01  0.19000E+01
 -0.75000E+00 -0.75000E+00 -0.93090E+00  0.19023E+01
 -0.75000E+00 -0.75000E+00 -0.81910E+00  0.19157E+01
 -0.75000E+00 -0.75000E+00 -0.75000E+00  0.19293E+01
 -0.68090E+00 -0.10000E+01 -0.10000E+01  0.19157E+01
 -0.68090E+00 -0.10000E+01 -0.93090E+00  0.19061E+01
 -0.68090E+00 -0.10000E+01 -0.81910E+00  0.19000E+01
 -0.68090E+00 -0.10000E+01 -0.75000E+00  0.19023E+01
 -0.68090E+00 -0.93090E+00 -0.10000E+01  0.19061E+01
 -0.68090E+00 -0.93090E+00 -0.93090E+00  0.19009E+01
 -0.68090E+00 -0.93090E+00 -0.81910E+00  0.19023E+01
 -0.68090E+00 -0.93090E+00 -0.75000E+00  0.19093E+01
 -0.68090E+00 -0.81910E+00 -0.10000E+01  0.19000E+01
 -0.68090E+00 -0.81910E+00 -0.93090E+00  0.19023E+01
 -0.68090E+00 -0.81910E+00 -0.81910E+00  0.19157E+01
 -0.68090E+00 -0.81910E+00 -0.75000E+00  0.19293E+01
 -0.68090E+00 -0.75000E+00 -0.10000E+01  0.19023E+01
 -0.68090E+00 -0.75000E+00 -0.93090E+00  0.19093E+01
 -0.68090E+00 -0.75000E+00 -0.81910E+00  0.19293E+01
 -0.68090E+00 -0.75000E+00 -0.75000E+00  0.19462E+01
 -0.56910E+00 -0.10000E+01 -0.10000E+01  0.19023E+01
 -0.56910E+00 -0.10000E+01 -0.93090E+00  0.19000E+01
 -0.56910E+00 -0.10000E+01 -0.81910E+00  0.19061E+01
 -0.56910E+00 -0.10000E+01 -0.75000E+00  0.19157E+01
 -0.56910E+00 -0.93090E+00 -0.10000E+01  0.19000E+01
 -0.56910E+00 -0.93090E+00 -0.93090E+00  0.19023E+01
 -0.56910E+00 -0.93090E+00 -0.81910E+00  0.19157E+01
 -0.56910E+00 -0.93090E+00 -0.75000E+00  0.19293E+01
 -0.56910E+00 -0.81910E+00 -0.10000E+01  0.19061E+01
 -0.56910E+00 -0.81910E+00 -0.93090E+00  0.19157E+01
 -0.56910E+00 -0.81910E+00 -0.81910E+00  0.19394E+01
 -0.56910E+00 -0.81910E+00 -0.75000E+00  0.19579E+01
 -0.56910E+00 -0.75000E+00 -0.10000E+01  0.19157E+01
 -0.56910E+00 -0.75000E+00 -0.93090E+00  0.19293E+01
 -0.56910E+00 -0.75000E+00 -0.81910E+00  0.19579E+01
 -0.56910E+00 -0.75000E+00 -0.75000E+00  0.19785E+01
 -0.50000E+00 -0.10000E+01 -0.10000E+01  0.19000E+01
 -0.50000E+00 -0.10000E+01 -0.93090E+00  0.19023E+01
 -0.50000E+00 -0.10000E+01 -0.81910E+00  0.19157E+01
 -0.50000E+00 -0.10000E+01 -0.75000E+00  0.19293E+01
 -0.50000E+00 -0.93090E+00 -0.10000E+01  0.19023E+01
 -0.50000E+00 -0.93090E+00 -0.93090E+00  0.19093E+01
 -0.50000E+00 -0.93090E+00 -0.81910E+00  0.19293E+01
 -0.50000E+00 -0.93090E+00 -0.75000E+00  0.19462E+01
 -0.50000E+00 -0.81910E+00 -0.10000E+01  0.19157E+01
 -0.50000E+00 -0.81910E+00 -0.93090E+00  0.19293E+01
 -0.50000E+00 -0.81910E+00 -0.81910E+00  0.19579E+01
 -0.50000E+00 -0.81910E+00 -0.75000E+00  0.19785E+01
 -0.50000E+00 -0.75000E+00 -0.10000E+01  0.19293E+01
 -0.50000E+00 -0.75000E+00 -0.93090E+00  0.19462E+01
 -0.50000E+00 -0.75000E+00 -0.81910E+00  0.19785E+01
 -0.50000E+00 -0.75000E+00 -0.75000E+00  0.20000E+01
 ZONE I =           4 ,J=           4 ,K=           4 ,F=POINT
 -0.50000E+00 -0.10000E+01 -0.10000E+01  0.19000E+01
 -0.50000E+00 -0.10000E+01 -0.93090E+00  0.19023E+01
 -0.50000E+00 -0.10000E+01 -0.81910E+00  0.19157E+01
 -0.50000E+00 -0.10000E+01 -0.75000E+00  0.19293E+01
 -0.50000E+00 -0.93090E+00 -0.10000E+01  0.19023E+01
 -0.50000E+00 -0.93090E+00 -0.93090E+00  0.19093E+01
 -0.50000E+00 -0.93090E+00 -0.81910E+00  0.19293E+01
 -0.50000E+00 -0.93090E+00 -0.75000E+00  0.19462E+01
 -0.50000E+00 -0.81910E+00 -0.10000E+01  0.19157E+01
 -0.50000E+00 -0.81910E+00 -0.93090E+00  0.19293E+01
 -0.50000E+00 -0.81910E+00 -0.81910E+00  0.19579E+01
 -0.50000E+00 -0.81910E+00 -0.75000E+00  0.19785E+01
 -0.50000E+00 -0.75000E+00 -0.10000E+01  0.19293E+01
 -0.50000E+00 -0.75000E+00 -0.93090E+00  0.19462E+01
 -0.50000E+00 -0.75000E+00 -0.81910E+00  0.19785E+01
 -0.50000E+00 -0.75000E+00 -0.75000E+00  0.20000E+01
 -0.43090E+00 -0.10000E+01 -0.10000E+01  0.19023E+01
 -0.43090E+00 -0.10000E+01 -0.93090E+00  0.19093E+01
 -0.43090E+00 -0.10000E+01 -0.81910E+00  0.19293E+01
 -0.43090E+00 -0.10000E+01 -0.75000E+00  0.19462E+01
 -0.43090E+00 -0.93090E+00 -0.10000E+01  0.19093E+01
 -0.43090E+00 -0.93090E+00 -0.93090E+00  0.19205E+01
 -0.43090E+00 -0.93090E+00 -0.81910E+00  0.19462E+01
 -0.43090E+00 -0.93090E+00 -0.75000E+00  0.19656E+01
 -0.43090E+00 -0.81910E+00 -0.10000E+01  0.19293E+01
 -0.43090E+00 -0.81910E+00 -0.93090E+00  0.19462E+01
 -0.43090E+00 -0.81910E+00 -0.81910E+00  0.19785E+01
 -0.43090E+00 -0.81910E+00 -0.75000E+00  0.20000E+01
 -0.43090E+00 -0.75000E+00 -0.10000E+01  0.19462E+01
 -0.43090E+00 -0.75000E+00 -0.93090E+00  0.19656E+01
 -0.43090E+00 -0.75000E+00 -0.81910E+00  0.20000E+01
 -0.43090E+00 -0.75000E+00 -0.75000E+00  0.20215E+01
 -0.31910E+00 -0.10000E+01 -0.10000E+01  0.19157E+01
 -0.31910E+00 -0.10000E+01 -0.93090E+00  0.19293E+01
 -0.31910E+00 -0.10000E+01 -0.81910E+00  0.19579E+01
 -0.31910E+00 -0.10000E+01 -0.75000E+00  0.19785E+01
 -0.31910E+00 -0.93090E+00 -0.10000E+01  0.19293E+01
 -0.31910E+00 -0.93090E+00 -0.93090E+00  0.19462E+01
 -0.31910E+00 -0.93090E+00 -0.81910E+00  0.19785E+01
 -0.31910E+00 -0.93090E+00 -0.75000E+00  0.20000E+01
 -0.31910E+00 -0.81910E+00 -0.10000E+01  0.19579E+01
 -0.31910E+00 -0.81910E+00 -0.93090E+00  0.19785E+01
 -0.31910E+00 -0.81910E+00 -0.81910E+00  0.20134E+01
 -0.31910E+00 -0.81910E+00 -0.75000E+00  0.20344E+01
 -0.31910E+00 -0.75000E+00 -0.10000E+01  0.19785E+01
 -0.31910E+00 -0.75000E+00 -0.93090E+00  0.20000E+01
 -0.31910E+00 -0.75000E+00 -0.81910E+00  0.20344E+01
 -0.31910E+00 -0.75000E+00 -0.75000E+00  0.20538E+01
 -0.25000E+00 -0.10000E+01 -0.10000E+01  0.19293E+01
 -0.25000E+00 -0.10000E+01 -0.93090E+00  0.19462E+01
 -0.25000E+00 -0.10000E+01 -0.81910E+00  0.19785E+01
 -0.25000E+00 -0.10000E+01 -0.75000E+00  0.20000E+01
 -0.25000E+00 -0.93090E+00 -0.10000E+01  0.19462E+01
 -0.25000E+00 -0.93090E+00 -0.93090E+00  0.19656E+01
 -0.25000E+00 -0.93090E+00 -0.81910E+00  0.20000E+01
 -0.25000E+00 -0.93090E+00 -0.75000E+00  0.20215E+01
 -0.25000E+00 -0.81910E+00 -0.10000E+01  0.19785E+01
 -0.25000E+00 -0.81910E+00 -0.93090E+00  0.20000E+01
 -0.25000E+00 -0.81910E+00 -0.81910E+00  0.20344E+01
 -0.25000E+00 -0.81910E+00 -0.75000E+00  0.20538E+01
 -0.25000E+00 -0.75000E+00 -0.10000E+01  0.20000E+01
 -0.25000E+00 -0.75000E+00 -0.93090E+00  0.20215E+01
 -0.25000E+00 -0.75000E+00 -0.81910E+00  0.20538E+01
 -0.25000E+00 -0.75000E+00 -0.75000E+00  0.20707E+01
 ZONE I =           4 ,J=           4 ,K=           4 ,F=POINT
 -0.25000E+00 -0.10000E+01 -0.10000E+01  0.19293E+01
 -0.25000E+00 -0.10000E+01 -0.93090E+00  0.19462E+01
 -0.25000E+00 -0.10000E+01 -0.81910E+00  0.19785E+01
 -0.25000E+00 -0.10000E+01 -0.75000E+00  0.20000E+01
 -0.25000E+00 -0.93090E+00 -0.10000E+01  0.19462E+01
 -0.25000E+00 -0.93090E+00 -0.93090E+00  0.19656E+01
 -0.25000E+00 -0.93090E+00 -0.81910E+00  0.20000E+01
 -0.25000E+00 -0.93090E+00 -0.75000E+00  0.20215E+01
 -0.25000E+00 -0.81910E+00 -0.10000E+01  0.19785E+01
 -0.25000E+00 -0.81910E+00 -0.93090E+00  0.20000E+01
 -0.25000E+00 -0.81910E+00 -0.81910E+00  0.20344E+01
 -0.25000E+00 -0.81910E+00 -0.75000E+00  0.20538E+01
 -0.25000E+00 -0.75000E+00 -0.10000E+01  0.20000E+01
 -0.25000E+00 -0.75000E+00 -0.93090E+00  0.20215E+01
 -0.25000E+00 -0.75000E+00 -0.81910E+00  0.20538E+01
 -0.25000E+00 -0.75000E+00 -0.75000E+00  0.20707E+01
 -0.18090E+00 -0.10000E+01 -0.10000E+01  0.19462E+01
 -0.18090E+00 -0.10000E+01 -0.93090E+00  0.19656E+01
 -0.18090E+00 -0.10000E+01 -0.81910E+00  0.20000E+01
 -0.18090E+00 -0.10000E+01 -0.75000E+00  0.20215E+01
 -0.18090E+00 -0.93090E+00 -0.10000E+01  0.19656E+01
 -0.18090E+00 -0.93090E+00 -0.93090E+00  0.19866E+01
 -0.18090E+00 -0.93090E+00 -0.81910E+00  0.20215E+01
 -0.18090E+00 -0.93090E+00 -0.75000E+00  0.20421E+01
 -0.18090E+00 -0.81910E+00 -0.10000E+01  0.20000E+01
 -0.18090E+00 -0.81910E+00 -0.93090E+00  0.20215E+01
 -0.18090E+00 -0.81910E+00 -0.81910E+00  0.20538E+01
 -0.18090E+00 -0.81910E+00 -0.75000E+00  0.20707E+01
 -0.18090E+00 -0.75000E+00 -0.10000E+01  0.20215E+01
 -0.18090E+00 -0.75000E+00 -0.93090E+00  0.20421E+01
 -0.18090E+00 -0.75000E+00 -0.81910E+00  0.20707E+01
 -0.18090E+00 -0.75000E+00 -0.75000E+00  0.20843E+01
 -0.69098E-01 -0.10000E+01 -0.10000E+01  0.19785E+01
 -0.69098E-01 -0.10000E+01 -0.93090E+00  0.20000E+01
 -0.69098E-01 -0.10000E+01 -0.81910E+00  0.20344E+01
 -0.69098E-01 -0.10000E+01 -0.75000E+00  0.20538E+01
 -0.69098E-01 -0.93090E+00 -0.10000E+01  0.20000E+01
 -0.69098E-01 -0.93090E+00 -0.93090E+00  0.20215E+01
 -0.69098E-01 -0.93090E+00 -0.81910E+00  0.20538E+01
 -0.69098E-01 -0.93090E+00 -0.75000E+00  0.20707E+01
 -0.69098E-01 -0.81910E+00 -0.10000E+01  0.20344E+01
 -0.69098E-01 -0.81910E+00 -0.93090E+00  0.20538E+01
 -0.69098E-01 -0.81910E+00 -0.81910E+00  0.20795E+01
 -0.69098E-01 -0.81910E+00 -0.75000E+00  0.20907E+01
 -0.69098E-01 -0.75000E+00 -0.10000E+01  0.20538E+01
 -0.69098E-01 -0.75000E+00 -0.93090E+00  0.20707E+01
 -0.69098E-01 -0.75000E+00 -0.81910E+00  0.20907E+01
 -0.69098E-01 -0.75000E+00 -0.75000E+00  0.20977E+01
  0.00000E+00 -0.10000E+01 -0.10000E+01  0.20000E+01
  0.00000E+00 -0.10000E+01 -0.93090E+00  0.20215E+01
  0.00000E+00 -0.10000E+01 -0.81910E+00  0.20538E+01
  0.00000E+00 -0.10000E+01 -0.75000E+00  0.20707E+01
  0.00000E+00 -0.93090E+00 -0.10000E+01  0.20215E+01
  0.00000E+00 -0.93090E+00 -0.93090E+00  0.20421E+01
  0.00000E+00 -0.93090E+00 -0.81910E+00  0.20707E+01
  0.00000E+00 -0.93090E+00 -0.75000E+00  0.20843E+01
  0.00000E+00 -0.81910E+00 -0.10000E+01  0.20538E+01
  0.00000E+00 -0.81910E+00 -0.93090E+00  0.20707E+01
  0.00000E+00 -0.81910E+00 -0.81910E+00  0.20907E+01
  0.00000E+00 -0.81910E+00 -0.75000E+00  0.20977E+01
  0.00000E+00 -0.75000E+00 -0.10000E+01  0.20707E+01
  0.00000E+00 -0.75000E+00 -0.93090E+00  0.20843E+01
  0.00000E+00 -0.75000E+00 -0.81910E+00  0.20977E+01
  0.00000E+00 -0.75000E+00 -0.75000E+00  0.21000E+01
 ZONE I =           4 ,J=           4 ,K=           4 ,F=POINT
  0.00000E+00 -0.10000E+01 -0.10000E+01  0.20000E+01
  0.00000E+00 -0.10000E+01 -0.93090E+00  0.20215E+01
  0.00000E+00 -0.10000E+01 -0.81910E+00  0.20538E+01
  0.00000E+00 -0.10000E+01 -0.75000E+00  0.20707E+01
  0.00000E+00 -0.93090E+00 -0.10000E+01  0.20215E+01
  0.00000E+00 -0.93090E+00 -0.93090E+00  0.20421E+01
  0.00000E+00 -0.93090E+00 -0.81910E+00  0.20707E+01
  0.00000E+00 -0.93090E+00 -0.75000E+00  0.20843E+01
  0.00000E+00 -0.81910E+00 -0.10000E+01  0.20538E+01
  0.00000E+00 -0.81910E+00 -0.93090E+00  0.20707E+01
  0.00000E+00 -0.81910E+00 -0.81910E+00  0.20907E+01
  0.00000E+00 -0.81910E+00 -0.75000E+00  0.20977E+01
  0.00000E+00 -0.75000E+00 -0.10000E+01  0.20707E+01
  0.00000E+00 -0.75000E+00 -0.93090E+00  0.20843E+01
  0.00000E+00 -0.75000E+00 -0.81910E+00  0.20977E+01
  0.00000E+00 -0.75000E+00 -0.75000E+00  0.21000E+01
  0.69098E-01 -0.10000E+01 -0.10000E+01  0.20215E+01
  0.69098E-01 -0.10000E+01 -0.93090E+00  0.20421E+01
  0.69098E-01 -0.10000E+01 -0.81910E+00  0.20707E+01
  0.69098E-01 -0.10000E+01 -0.75000E+00  0.20843E+01
  0.69098E-01 -0.93090E+00 -0.10000E+01  0.20421E+01
  0.69098E-01 -0.93090E+00 -0.93090E+00  0.20606E+01
  0.69098E-01 -0.93090E+00 -0.81910E+00  0.20843E+01
  0.69098E-01 -0.93090E+00 -0.75000E+00  0.20939E+01
  0.69098E-01 -0.81910E+00 -0.10000E+01  0.20707E+01
  0.69098E-01 -0.81910E+00 -0.93090E+00  0.20843E+01
  0.69098E-01 -0.81910E+00 -0.81910E+00  0.20977E+01
  0.69098E-01 -0.81910E+00 -0.75000E+00  0.21000E+01
  0.69098E-01 -0.75000E+00 -0.10000E+01  0.20843E+01
  0.69098E-01 -0.75000E+00 -0.93090E+00  0.20939E+01
  0.69098E-01 -0.75000E+00 -0.81910E+00  0.21000E+01
  0.69098E-01 -0.75000E+00 -0.75000E+00  0.20977E+01
  0.18090E+00 -0.10000E+01 -0.10000E+01  0.20538E+01
  0.18090E+00 -0.10000E+01 -0.93090E+00  0.20707E+01
  0.18090E+00 -0.10000E+01 -0.81910E+00  0.20907E+01
  0.18090E+00 -0.10000E+01 -0.75000E+00  0.20977E+01
  0.18090E+00 -0.93090E+00 -0.10000E+01  0.20707E+01
  0.18090E+00 -0.93090E+00 -0.93090E+00  0.20843E+01
  0.18090E+00 -0.93090E+00 -0.81910E+00  0.20977E+01
  0.18090E+00 -0.93090E+00 -0.75000E+00  0.21000E+01
  0.18090E+00 -0.81910E+00 -0.10000E+01  0.20907E+01
  0.18090E+00 -0.81910E+00 -0.93090E+00  0.20977E+01
  0.18090E+00 -0.81910E+00 -0.81910E+00  0.20991E+01
  0.18090E+00 -0.81910E+00 -0.75000E+00  0.20939E+01
  0.18090E+00 -0.75000E+00 -0.10000E+01  0.20977E+01
  0.18090E+00 -0.75000E+00 -0.93090E+00  0.21000E+01
  0.18090E+00 -0.75000E+00 -0.81910E+00  0.20939E+01
  0.18090E+00 -0.75000E+00 -0.75000E+00  0.20843E+01
  0.25000E+00 -0.10000E+01 -0.10000E+01  0.20707E+01
  0.25000E+00 -0.10000E+01 -0.93090E+00  0.20843E+01
  0.25000E+00 -0.10000E+01 -0.81910E+00  0.20977E+01
  0.25000E+00 -0.10000E+01 -0.75000E+00  0.21000E+01
  0.25000E+00 -0.93090E+00 -0.10000E+01  0.20843E+01
  0.25000E+00 -0.93090E+00 -0.93090E+00  0.20939E+01
  0.25000E+00 -0.93090E+00 -0.81910E+00  0.21000E+01
  0.25000E+00 -0.93090E+00 -0.75000E+00  0.20977E+01
  0.25000E+00 -0.81910E+00 -0.10000E+01  0.20977E+01
  0.25000E+00 -0.81910E+00 -0.93090E+00  0.21000E+01
  0.25000E+00 -0.81910E+00 -0.81910E+00  0.20939E+01
  0.25000E+00 -0.81910E+00 -0.75000E+00  0.20843E+01
  0.25000E+00 -0.75000E+00 -0.10000E+01  0.21000E+01
  0.25000E+00 -0.75000E+00 -0.93090E+00  0.20977E+01
  0.25000E+00 -0.75000E+00 -0.81910E+00  0.20843E+01
  0.25000E+00 -0.75000E+00 -0.75000E+00  0.20707E+01
 ZONE I =           4 ,J=           4 ,K=           4 ,F=POINT
  0.25000E+00 -0.10000E+01 -0.10000E+01  0.20707E+01
  0.25000E+00 -0.10000E+01 -0.93090E+00  0.20843E+01
  0.25000E+00 -0.10000E+01 -0.81910E+00  0.20977E+01
  0.25000E+00 -0.10000E+01 -0.75000E+00  0.21000E+01
  0.25000E+00 -0.93090E+00 -0.10000E+01  0.20843E+01
  0.25000E+00 -0.93090E+00 -0.93090E+00  0.20939E+01
  0.25000E+00 -0.93090E+00 -0.81910E+00  0.21000E+01
  0.25000E+00 -0.93090E+00 -0.75000E+00  0.20977E+01
  0.25000E+00 -0.81910E+00 -0.10000E+01  0.20977E+01
  0.25000E+00 -0.81910E+00 -0.93090E+00  0.21000E+01
  0.25000E+00 -0.81910E+00 -0.81910E+00  0.20939E+01
  0.25000E+00 -0.81910E+00 -0.75000E+00  0.20843E+01
  0.25000E+00 -0.75000E+00 -0.10000E+01  0.21000E+01
  0.25000E+00 -0.75000E+00 -0.93090E+00  0.20977E+01
  0.25000E+00 -0.75000E+00 -0.81910E+00  0.20843E+01
  0.25000E+00 -0.75000E+00 -0.75000E+00  0.20707E+01
  0.31910E+00 -0.10000E+01 -0.10000E+01  0.20843E+01
  0.31910E+00 -0.10000E+01 -0.93090E+00  0.20939E+01
  0.31910E+00 -0.10000E+01 -0.81910E+00  0.21000E+01
  0.31910E+00 -0.10000E+01 -0.75000E+00  0.20977E+01
  0.31910E+00 -0.93090E+00 -0.10000E+01  0.20939E+01
  0.31910E+00 -0.93090E+00 -0.93090E+00  0.20991E+01
  0.31910E+00 -0.93090E+00 -0.81910E+00  0.20977E+01
  0.31910E+00 -0.93090E+00 -0.75000E+00  0.20907E+01
  0.31910E+00 -0.81910E+00 -0.10000E+01  0.21000E+01
  0.31910E+00 -0.81910E+00 -0.93090E+00  0.20977E+01
  0.31910E+00 -0.81910E+00 -0.81910E+00  0.20843E+01
  0.31910E+00 -0.81910E+00 -0.75000E+00  0.20707E+01
  0.31910E+00 -0.75000E+00 -0.10000E+01  0.20977E+01
  0.31910E+00 -0.75000E+00 -0.93090E+00  0.20907E+01
  0.31910E+00 -0.75000E+00 -0.81910E+00  0.20707E+01
  0.31910E+00 -0.75000E+00 -0.75000E+00  0.20538E+01
  0.43090E+00 -0.10000E+01 -0.10000E+01  0.20977E+01
  0.43090E+00 -0.10000E+01 -0.93090E+00  0.21000E+01
  0.43090E+00 -0.10000E+01 -0.81910E+00  0.20939E+01
  0.43090E+00 -0.10000E+01 -0.75000E+00  0.20843E+01
  0.43090E+00 -0.93090E+00 -0.10000E+01  0.21000E+01
  0.43090E+00 -0.93090E+00 -0.93090E+00  0.20977E+01
  0.43090E+00 -0.93090E+00 -0.81910E+00  0.20843E+01
  0.43090E+00 -0.93090E+00 -0.75000E+00  0.20707E+01
  0.43090E+00 -0.81910E+00 -0.10000E+01  0.20939E+01
  0.43090E+00 -0.81910E+00 -0.93090E+00  0.20843E+01
  0.43090E+00 -0.81910E+00 -0.81910E+00  0.20606E+01
  0.43090E+00 -0.81910E+00 -0.75000E+00  0.20421E+01
  0.43090E+00 -0.75000E+00 -0.10000E+01  0.20843E+01
  0.43090E+00 -0.75000E+00 -0.93090E+00  0.20707E+01
  0.43090E+00 -0.75000E+00 -0.81910E+00  0.20421E+01
  0.43090E+00 -0.75000E+00 -0.75000E+00  0.20215E+01
  0.50000E+00 -0.10000E+01 -0.10000E+01  0.21000E+01
  0.50000E+00 -0.10000E+01 -0.93090E+00  0.20977E+01
  0.50000E+00 -0.10000E+01 -0.81910E+00  0.20843E+01
  0.50000E+00 -0.10000E+01 -0.75000E+00  0.20707E+01
  0.50000E+00 -0.93090E+00 -0.10000E+01  0.20977E+01
  0.50000E+00 -0.93090E+00 -0.93090E+00  0.20907E+01
  0.50000E+00 -0.93090E+00 -0.81910E+00  0.20707E+01
  0.50000E+00 -0.93090E+00 -0.75000E+00  0.20538E+01
  0.50000E+00 -0.81910E+00 -0.10000E+01  0.20843E+01
  0.50000E+00 -0.81910E+00 -0.93090E+00  0.20707E+01
  0.50000E+00 -0.81910E+00 -0.81910E+00  0.20421E+01
  0.50000E+00 -0.81910E+00 -0.75000E+00  0.20215E+01
  0.50000E+00 -0.75000E+00 -0.10000E+01  0.20707E+01
  0.50000E+00 -0.75000E+00 -0.93090E+00  0.20538E+01
  0.50000E+00 -0.75000E+00 -0.81910E+00  0.20215E+01
  0.50000E+00 -0.75000E+00 -0.75000E+00  0.20000E+01
 ZONE I =           4 ,J=           4 ,K=           4 ,F=POINT
  0.50000E+00 -0.10000E+01 -0.10000E+01  0.21000E+01
  0.50000E+00 -0.10000E+01 -0.93090E+00  0.20977E+01
  0.50000E+00 -0.10000E+01 -0.81910E+00  0.20843E+01
  0.50000E+00 -0.10000E+01 -0.75000E+00  0.20707E+01
  0.50000E+00 -0.93090E+00 -0.10000E+01  0.20977E+01
  0.50000E+00 -0.93090E+00 -0.93090E+00  0.20907E+01
  0.50000E+00 -0.93090E+00 -0.81910E+00  0.20707E+01
  0.50000E+00 -0.93090E+00 -0.75000E+00  0.20538E+01
  0.50000E+00 -0.81910E+00 -0.10000E+01  0.20843E+01
  0.50000E+00 -0.81910E+00 -0.93090E+00  0.20707E+01
  0.50000E+00 -0.81910E+00 -0.81910E+00  0.20421E+01
  0.50000E+00 -0.81910E+00 -0.75000E+00  0.20215E+01
  0.50000E+00 -0.75000E+00 -0.10000E+01  0.20707E+01
  0.50000E+00 -0.75000E+00 -0.93090E+00  0.20538E+01
  0.50000E+00 -0.75000E+00 -0.81910E+00  0.20215E+01
  0.50000E+00 -0.75000E+00 -0.75000E+00  0.20000E+01
  0.56910E+00 -0.10000E+01 -0.10000E+01  0.20977E+01
  0.56910E+00 -0.10000E+01 -0.93090E+00  0.20907E+01
  0.56910E+00 -0.10000E+01 -0.81910E+00  0.20707E+01
  0.56910E+00 -0.10000E+01 -0.75000E+00  0.20538E+01
  0.56910E+00 -0.93090E+00 -0.10000E+01  0.20907E+01
  0.56910E+00 -0.93090E+00 -0.93090E+00  0.20795E+01
  0.56910E+00 -0.93090E+00 -0.81910E+00  0.20538E+01
  0.56910E+00 -0.93090E+00 -0.75000E+00  0.20344E+01
  0.56910E+00 -0.81910E+00 -0.10000E+01  0.20707E+01
  0.56910E+00 -0.81910E+00 -0.93090E+00  0.20538E+01
  0.56910E+00 -0.81910E+00 -0.81910E+00  0.20215E+01
  0.56910E+00 -0.81910E+00 -0.75000E+00  0.20000E+01
  0.56910E+00 -0.75000E+00 -0.10000E+01  0.20538E+01
  0.56910E+00 -0.75000E+00 -0.93090E+00  0.20344E+01
  0.56910E+00 -0.75000E+00 -0.81910E+00  0.20000E+01
  0.56910E+00 -0.75000E+00 -0.75000E+00  0.19785E+01
  0.68090E+00 -0.10000E+01 -0.10000E+01  0.20843E+01
  0.68090E+00 -0.10000E+01 -0.93090E+00  0.20707E+01
  0.68090E+00 -0.10000E+01 -0.81910E+00  0.20421E+01
  0.68090E+00 -0.10000E+01 -0.75000E+00  0.20215E+01
  0.68090E+00 -0.93090E+00 -0.10000E+01  0.20707E+01
  0.68090E+00 -0.93090E+00 -0.93090E+00  0.20538E+01
  0.68090E+00 -0.93090E+00 -0.81910E+00  0.20215E+01
  0.68090E+00 -0.93090E+00 -0.75000E+00  0.20000E+01
  0.68090E+00 -0.81910E+00 -0.10000E+01  0.20421E+01
  0.68090E+00 -0.81910E+00 -0.93090E+00  0.20215E+01
  0.68090E+00 -0.81910E+00 -0.81910E+00  0.19866E+01
  0.68090E+00 -0.81910E+00 -0.75000E+00  0.19656E+01
  0.68090E+00 -0.75000E+00 -0.10000E+01  0.20215E+01
  0.68090E+00 -0.75000E+00 -0.93090E+00  0.20000E+01
  0.68090E+00 -0.75000E+00 -0.81910E+00  0.19656E+01
  0.68090E+00 -0.75000E+00 -0.75000E+00  0.19462E+01
  0.75000E+00 -0.10000E+01 -0.10000E+01  0.20707E+01
  0.75000E+00 -0.10000E+01 -0.93090E+00  0.20538E+01
  0.75000E+00 -0.10000E+01 -0.81910E+00  0.20215E+01
  0.75000E+00 -0.10000E+01 -0.75000E+00  0.20000E+01
  0.75000E+00 -0.93090E+00 -0.10000E+01  0.20538E+01
  0.75000E+00 -0.93090E+00 -0.93090E+00  0.20344E+01
  0.75000E+00 -0.93090E+00 -0.81910E+00  0.20000E+01
  0.75000E+00 -0.93090E+00 -0.75000E+00  0.19785E+01
  0.75000E+00 -0.81910E+00 -0.10000E+01  0.20215E+01
  0.75000E+00 -0.81910E+00 -0.93090E+00  0.20000E+01
  0.75000E+00 -0.81910E+00 -0.81910E+00  0.19656E+01
  0.75000E+00 -0.81910E+00 -0.75000E+00  0.19462E+01
  0.75000E+00 -0.75000E+00 -0.10000E+01  0.20000E+01
  0.75000E+00 -0.75000E+00 -0.93090E+00  0.19785E+01
  0.75000E+00 -0.75000E+00 -0.81910E+00  0.19462E+01
  0.75000E+00 -0.75000E+00 -0.75000E+00  0.19293E+01
 ZONE I =           4 ,J=           4 ,K=           4 ,F=POINT
  0.75000E+00 -0.10000E+01 -0.10000E+01  0.20707E+01
  0.75000E+00 -0.10000E+01 -0.93090E+00  0.20538E+01
  0.75000E+00 -0.10000E+01 -0.81910E+00  0.20215E+01
  0.75000E+00 -0.10000E+01 -0.75000E+00  0.20000E+01
  0.75000E+00 -0.93090E+00 -0.10000E+01  0.20538E+01
  0.75000E+00 -0.93090E+00 -0.93090E+00  0.20344E+01
  0.75000E+00 -0.93090E+00 -0.81910E+00  0.20000E+01
  0.75000E+00 -0.93090E+00 -0.75000E+00  0.19785E+01
  0.75000E+00 -0.81910E+00 -0.10000E+01  0.20215E+01
  0.75000E+00 -0.81910E+00 -0.93090E+00  0.20000E+01
  0.75000E+00 -0.81910E+00 -0.81910E+00  0.19656E+01
  0.75000E+00 -0.81910E+00 -0.75000E+00  0.19462E+01
  0.75000E+00 -0.75000E+00 -0.10000E+01  0.20000E+01
  0.75000E+00 -0.75000E+00 -0.93090E+00  0.19785E+01
  0.75000E+00 -0.75000E+00 -0.81910E+00  0.19462E+01
  0.75000E+00 -0.75000E+00 -0.75000E+00  0.19293E+01
  0.81910E+00 -0.10000E+01 -0.10000E+01  0.20538E+01
  0.81910E+00 -0.10000E+01 -0.93090E+00  0.20344E+01
  0.81910E+00 -0.10000E+01 -0.81910E+00  0.20000E+01
  0.81910E+00 -0.10000E+01 -0.75000E+00  0.19785E+01
  0.81910E+00 -0.93090E+00 -0.10000E+01  0.20344E+01
  0.81910E+00 -0.93090E+00 -0.93090E+00  0.20134E+01
  0.81910E+00 -0.93090E+00 -0.81910E+00  0.19785E+01
  0.81910E+00 -0.93090E+00 -0.75000E+00  0.19579E+01
  0.81910E+00 -0.81910E+00 -0.10000E+01  0.20000E+01
  0.81910E+00 -0.81910E+00 -0.93090E+00  0.19785E+01
  0.81910E+00 -0.81910E+00 -0.81910E+00  0.19462E+01
  0.81910E+00 -0.81910E+00 -0.75000E+00  0.19293E+01
  0.81910E+00 -0.75000E+00 -0.10000E+01  0.19785E+01
  0.81910E+00 -0.75000E+00 -0.93090E+00  0.19579E+01
  0.81910E+00 -0.75000E+00 -0.81910E+00  0.19293E+01
  0.81910E+00 -0.75000E+00 -0.75000E+00  0.19157E+01
  0.93090E+00 -0.10000E+01 -0.10000E+01  0.20215E+01
  0.93090E+00 -0.10000E+01 -0.93090E+00  0.20000E+01
  0.93090E+00 -0.10000E+01 -0.81910E+00  0.19656E+01
  0.93090E+00 -0.10000E+01 -0.75000E+00  0.19462E+01
  0.93090E+00 -0.93090E+00 -0.10000E+01  0.20000E+01
  0.93090E+00 -0.93090E+00 -0.93090E+00  0.19785E+01
  0.93090E+00 -0.93090E+00 -0.81910E+00  0.19462E+01
  0.93090E+00 -0.93090E+00 -0.75000E+00  0.19293E+01
  0.93090E+00 -0.81910E+00 -0.10000E+01  0.19656E+01
  0.93090E+00 -0.81910E+00 -0.93090E+00  0.19462E+01
  0.93090E+00 -0.81910E+00 -0.81910E+00  0.19205E+01
  0.93090E+00 -0.81910E+00 -0.75000E+00  0.19093E+01
  0.93090E+00 -0.75000E+00 -0.10000E+01  0.19462E+01
  0.93090E+00 -0.75000E+00 -0.93090E+00  0.19293E+01
  0.93090E+00 -0.75000E+00 -0.81910E+00  0.19093E+01
  0.93090E+00 -0.75000E+00 -0.75000E+00  0.19023E+01
  0.10000E+01 -0.10000E+01 -0.10000E+01  0.20000E+01
  0.10000E+01 -0.10000E+01 -0.93090E+00  0.19785E+01
  0.10000E+01 -0.10000E+01 -0.81910E+00  0.19462E+01
  0.10000E+01 -0.10000E+01 -0.75000E+00  0.19293E+01
  0.10000E+01 -0.93090E+00 -0.10000E+01  0.19785E+01
  0.10000E+01 -0.93090E+00 -0.93090E+00  0.19579E+01
  0.10000E+01 -0.93090E+00 -0.81910E+00  0.19293E+01
  0.10000E+01 -0.93090E+00 -0.75000E+00  0.19157E+01
  0.10000E+01 -0.81910E+00 -0.10000E+01  0.19462E+01
  0.10000E+01 -0.81910E+00 -0.93090E+00  0.19293E+01
  0.10000E+01 -0.81910E+00 -0.81910E+00  0.19093E+01
  0.10000E+01 -0.81910E+00 -0.75000E+00  0.19023E+01
  0.10000E+01 -0.75000E+00 -0.10000E+01  0.19293E+01
  0.10000E+01 -0.75000E+00 -0.93090E+00  0.19157E+01
  0.10000E+01 -0.75000E+00 -0.81910E+00  0.19023E+01
  0.10000E+01 -0.75000E+00 -0.75000E+00  0.19000E+01
 ZONE I =           4 ,J=           4 ,K=           4 ,F=POINT
 -0.10000E+01 -0.75000E+00 -0.10000E+01  0.19293E+01
 -0.10000E+01 -0.75000E+00 -0.93090E+00  0.19157E+01
 -0.10000E+01 -0.75000E+00 -0.81910E+00  0.19023E+01
 -0.10000E+01 -0.75000E+00 -0.75000E+00  0.19000E+01
 -0.10000E+01 -0.68090E+00 -0.10000E+01  0.19157E+01
 -0.10000E+01 -0.68090E+00 -0.93090E+00  0.19061E+01
 -0.10000E+01 -0.68090E+00 -0.81910E+00  0.19000E+01
 -0.10000E+01 -0.68090E+00 -0.75000E+00  0.19023E+01
 -0.10000E+01 -0.56910E+00 -0.10000E+01  0.19023E+01
 -0.10000E+01 -0.56910E+00 -0.93090E+00  0.19000E+01
 -0.10000E+01 -0.56910E+00 -0.81910E+00  0.19061E+01
 -0.10000E+01 -0.56910E+00 -0.75000E+00  0.19157E+01
 -0.10000E+01 -0.50000E+00 -0.10000E+01  0.19000E+01
 -0.10000E+01 -0.50000E+00 -0.93090E+00  0.19023E+01
 -0.10000E+01 -0.50000E+00 -0.81910E+00  0.19157E+01
 -0.10000E+01 -0.50000E+00 -0.75000E+00  0.19293E+01
 -0.93090E+00 -0.75000E+00 -0.10000E+01  0.19157E+01
 -0.93090E+00 -0.75000E+00 -0.93090E+00  0.19061E+01
 -0.93090E+00 -0.75000E+00 -0.81910E+00  0.19000E+01
 -0.93090E+00 -0.75000E+00 -0.75000E+00  0.19023E+01
 -0.93090E+00 -0.68090E+00 -0.10000E+01  0.19061E+01
 -0.93090E+00 -0.68090E+00 -0.93090E+00  0.19009E+01
 -0.93090E+00 -0.68090E+00 -0.81910E+00  0.19023E+01
 -0.93090E+00 -0.68090E+00 -0.75000E+00  0.19093E+01
 -0.93090E+00 -0.56910E+00 -0.10000E+01  0.19000E+01
 -0.93090E+00 -0.56910E+00 -0.93090E+00  0.19023E+01
 -0.93090E+00 -0.56910E+00 -0.81910E+00  0.19157E+01
 -0.93090E+00 -0.56910E+00 -0.75000E+00  0.19293E+01
 -0.93090E+00 -0.50000E+00 -0.10000E+01  0.19023E+01
 -0.93090E+00 -0.50000E+00 -0.93090E+00  0.19093E+01
 -0.93090E+00 -0.50000E+00 -0.81910E+00  0.19293E+01
 -0.93090E+00 -0.50000E+00 -0.75000E+00  0.19462E+01
 -0.81910E+00 -0.75000E+00 -0.10000E+01  0.19023E+01
 -0.81910E+00 -0.75000E+00 -0.93090E+00  0.19000E+01
 -0.81910E+00 -0.75000E+00 -0.81910E+00  0.19061E+01
 -0.81910E+00 -0.75000E+00 -0.75000E+00  0.19157E+01
 -0.81910E+00 -0.68090E+00 -0.10000E+01  0.19000E+01
 -0.81910E+00 -0.68090E+00 -0.93090E+00  0.19023E+01
 -0.81910E+00 -0.68090E+00 -0.81910E+00  0.19157E+01
 -0.81910E+00 -0.68090E+00 -0.75000E+00  0.19293E+01
 -0.81910E+00 -0.56910E+00 -0.10000E+01  0.19061E+01
 -0.81910E+00 -0.56910E+00 -0.93090E+00  0.19157E+01